
                                 *****************
                                 * O   R   C   A *
                                 *****************

                                            #,                                       
                                            ###                                      
                                            ####                                     
                                            #####                                    
                                            ######                                   
                                           ########,                                 
                                     ,,################,,,,,                         
                               ,,#################################,,                 
                          ,,##########################################,,             
                       ,#########################################, ''#####,          
                    ,#############################################,,   '####,        
                  ,##################################################,,,,####,       
                ,###########''''           ''''###############################       
              ,#####''   ,,,,##########,,,,          '''####'''          '####       
            ,##' ,,,,###########################,,,                        '##       
           ' ,,###''''                  '''############,,,                           
         ,,##''                                '''############,,,,        ,,,,,,###''
      ,#''                                            '''#######################'''  
     '                                                          ''''####''''         
             ,#######,   #######,   ,#######,      ##                                
            ,#'     '#,  ##    ##  ,#'     '#,    #''#        ######   ,####,        
            ##       ##  ##   ,#'  ##            #'  '#       #        #'  '#        
            ##       ##  #######   ##           ,######,      #####,   #    #        
            '#,     ,#'  ##    ##  '#,     ,#' ,#      #,         ##   #,  ,#        
             '#######'   ##     ##  '#######'  #'      '#     #####' # '####'        



                  #######################################################
                  #                        -***-                        #
                  #          Department of theory and spectroscopy      #
                  #    Directorship and core code : Frank Neese         #
                  #        Max Planck Institute fuer Kohlenforschung    #
                  #                Kaiser Wilhelm Platz 1               #
                  #                 D-45470 Muelheim/Ruhr               #
                  #                      Germany                        #
                  #                                                     #
                  #                  All rights reserved                #
                  #                        -***-                        #
                  #######################################################


                         Program Version 5.0.4 -  RELEASE  -


 With contributions from (in alphabetic order):
   Daniel Aravena         : Magnetic Suceptibility
   Michael Atanasov       : Ab Initio Ligand Field Theory (pilot matlab implementation)
   Alexander A. Auer      : GIAO ZORA, VPT2 properties, NMR spectrum
   Ute Becker             : Parallelization
   Giovanni Bistoni       : ED, misc. LED, open-shell LED, HFLD
   Martin Brehm           : Molecular dynamics
   Dmytro Bykov           : SCF Hessian
   Vijay G. Chilkuri      : MRCI spin determinant printing, contributions to CSF-ICE
   Dipayan Datta          : RHF DLPNO-CCSD density
   Achintya Kumar Dutta   : EOM-CC, STEOM-CC
   Dmitry Ganyushin       : Spin-Orbit,Spin-Spin,Magnetic field MRCI
   Miquel Garcia          : C-PCM and meta-GGA Hessian, CC/C-PCM, Gaussian charge scheme
   Yang Guo               : DLPNO-NEVPT2, F12-NEVPT2, CIM, IAO-localization
   Andreas Hansen         : Spin unrestricted coupled pair/coupled cluster methods
   Benjamin Helmich-Paris : MC-RPA, TRAH-SCF, COSX integrals
   Lee Huntington         : MR-EOM, pCC
   Robert Izsak           : Overlap fitted RIJCOSX, COSX-SCS-MP3, EOM
   Marcus Kettner         : VPT2
   Christian Kollmar      : KDIIS, OOCD, Brueckner-CCSD(T), CCSD density, CASPT2, CASPT2-K
   Simone Kossmann        : Meta GGA functionals, TD-DFT gradient, OOMP2, MP2 Hessian
   Martin Krupicka        : Initial AUTO-CI
   Lucas Lang             : DCDCAS
   Marvin Lechner         : AUTO-CI (C++ implementation), FIC-MRCC
   Dagmar Lenk            : GEPOL surface, SMD
   Dimitrios Liakos       : Extrapolation schemes; Compound Job, initial MDCI parallelization
   Dimitrios Manganas     : Further ROCIS development; embedding schemes
   Dimitrios Pantazis     : SARC Basis sets
   Anastasios Papadopoulos: AUTO-CI, single reference methods and gradients
   Taras Petrenko         : DFT Hessian,TD-DFT gradient, ASA, ECA, R-Raman, ABS, FL, XAS/XES, NRVS
   Peter Pinski           : DLPNO-MP2, DLPNO-MP2 Gradient
   Christoph Reimann      : Effective Core Potentials
   Marius Retegan         : Local ZFS, SOC
   Christoph Riplinger    : Optimizer, TS searches, QM/MM, DLPNO-CCSD(T), (RO)-DLPNO pert. Triples
   Tobias Risthaus        : Range-separated hybrids, TD-DFT gradient, RPA, STAB
   Michael Roemelt        : Original ROCIS implementation
   Masaaki Saitow         : Open-shell DLPNO-CCSD energy and density
   Barbara Sandhoefer     : DKH picture change effects
   Avijit Sen             : IP-ROCIS
   Kantharuban Sivalingam : CASSCF convergence, NEVPT2, FIC-MRCI
   Bernardo de Souza      : ESD, SOC TD-DFT
   Georgi Stoychev        : AutoAux, RI-MP2 NMR, DLPNO-MP2 response
   Willem Van den Heuvel  : Paramagnetic NMR
   Boris Wezisla          : Elementary symmetry handling
   Frank Wennmohs         : Technical directorship


 We gratefully acknowledge several colleagues who have allowed us to
 interface, adapt or use parts of their codes:
   Stefan Grimme, W. Hujo, H. Kruse, P. Pracht,  : VdW corrections, initial TS optimization,
                  C. Bannwarth, S. Ehlert          DFT functionals, gCP, sTDA/sTD-DF
   Ed Valeev, F. Pavosevic, A. Kumar             : LibInt (2-el integral package), F12 methods
   Garnet Chan, S. Sharma, J. Yang, R. Olivares  : DMRG
   Ulf Ekstrom                                   : XCFun DFT Library
   Mihaly Kallay                                 : mrcc  (arbitrary order and MRCC methods)
   Jiri Pittner, Ondrej Demel                    : Mk-CCSD
   Frank Weinhold                                : gennbo (NPA and NBO analysis)
   Christopher J. Cramer and Donald G. Truhlar   : smd solvation model
   Lars Goerigk                                  : TD-DFT with DH, B97 family of functionals
   V. Asgeirsson, H. Jonsson                     : NEB implementation
   FAccTs GmbH                                   : IRC, NEB, NEB-TS, DLPNO-Multilevel, CI-OPT
                                                   MM, QMMM, 2- and 3-layer-ONIOM, Crystal-QMMM,
                                                   LR-CPCM, SF, NACMEs, symmetry and pop. for TD-DFT,
                                                   nearIR, NL-DFT gradient (VV10), updates on ESD,
                                                   ML-optimized integration grids
   S Lehtola, MJT Oliveira, MAL Marques          : LibXC Library
   Liviu Ungur et al                             : ANISO software


 Your calculation uses the libint2 library for the computation of 2-el integrals
 For citations please refer to: http://libint.valeyev.net

 Your ORCA version has been built with support for libXC version: 5.1.0
 For citations please refer to: https://tddft.org/programs/libxc/

 This ORCA versions uses:
   CBLAS   interface :  Fast vector & matrix operations
   LAPACKE interface :  Fast linear algebra routines
   SCALAPACK package :  Parallel linear algebra routines
   Shared memory     :  Shared parallel matrices
   BLAS/LAPACK       :  OpenBLAS 0.3.15  USE64BITINT DYNAMIC_ARCH NO_AFFINITY Zen SINGLE_THREADED
        Core in use  :  Zen
   Copyright (c) 2011-2014, The OpenBLAS Project




***************************************
The coordinates will be read from file: mygeom.xyz
***************************************


Your calculation utilizes the atom-pairwise dispersion correction
with the zero-damping scheme (D30)
Cite in your paper:
S.Grimme, J.Antony, S.Ehrlich and H.Krieg, J.Chem.Phys., 132, (2010), 154104 
   

XCFun DFT library Copyright 2009-2010 Ulf Ekstrom and contributors.
See http://admol.org/xcfun for more information.
This is free software; see the source code for copying conditions.
There is ABSOLUTELY NO WARRANTY; not even for MERCHANTABILITY or FITNESS FOR A PARTICULAR PURPOSE.
For details see the documentation.
Scientific users of this library should cite U. Ekstrom, L. Visscher, R. Bast, A. J. Thorvaldsen and K. Ruud;
J.Chem.Theor.Comp. 2010, DOI: 10.1021/ct100117s
XCFun Version 0.99 

================================================================================

----- Orbital basis set information -----
Your calculation utilizes the basis: def2-TZVPD
   F. Weigend and R. Ahlrichs, Phys. Chem. Chem. Phys. 7, 3297 (2005).
   D. Rappoport and F. Furche, J. Chem. Phys. 133 134105 (2010).

----- AuxJ basis set information -----
Your calculation utilizes the auxiliary basis: def2/J
   F. Weigend, Phys. Chem. Chem. Phys. 8, 1057 (2006).

================================================================================
                                        WARNINGS
                       Please study these warnings very carefully!
================================================================================


WARNING: The environment variable RSH_COMMAND is not set!
  ===> : All Displacements for the Numerical Hessian or Gradient calculation
         will be started on localhost

WARNING: Geometry Optimization
  ===> : Switching off AutoStart
         For restart on a previous wavefunction, please use MOREAD

INFO   : the flag for use of the SHARK integral package has been found!

================================================================================
                                       INPUT FILE
================================================================================
NAME = m062x_d3_041.inp
|  1> ! def2-TZVPD TIGHTSCF NORMALOPT defgrid3 
|  2> ! UKS
|  3> ! slowconv
|  4> ! NumFreq
|  5> ! M062X D3ZERO
|  6> %pal
|  7>  nprocs=32 
|  8> end
|  9> %geom
| 10>    MaxIter 80
| 11>    Calc_Hess true
| 12>    NumHess true   
| 13>    Hybrid_Hess {42 43} end
| 14>    Recalc_Hess 20
| 15>    MaxStep 0.20
| 16> end
| 17> %scf
| 18>  MaxIter 500
| 19> end
| 20> %maxcore 3000
| 21> %base "m062x_d3"
| 22> *xyzfile 0 2 mygeom.xyz
| 23> 
| 24> 
| 25>                          ****END OF INPUT****
================================================================================

                       *****************************
                       * Geometry Optimization Run *
                       *****************************

Geometry optimization settings:
Update method            Update   .... BFGS
Choice of coordinates    CoordSys .... Z-matrix Internals
Initial Hessian          InHess   .... Almoef's Model

Convergence Tolerances:
Energy Change            TolE     ....  5.0000e-06 Eh
Max. Gradient            TolMAXG  ....  3.0000e-04 Eh/bohr
RMS Gradient             TolRMSG  ....  1.0000e-04 Eh/bohr
Max. Displacement        TolMAXD  ....  4.0000e-03 bohr
RMS Displacement         TolRMSD  ....  2.0000e-03 bohr
Strict Convergence                ....  False
------------------------------------------------------------------------------
                        ORCA OPTIMIZATION COORDINATE SETUP
------------------------------------------------------------------------------

The optimization will be done in new redundant internal coordinates
Making redundant internal coordinates   ...  (new redundants) done
Evaluating the initial hessian          ...  (Is done on the fly) done
Evaluating the coordinates              ...  done
Calculating the B-matrix                .... done
Calculating the G-matrix                .... done
Diagonalizing the G-matrix              .... done
The first mode is                       ....  472
The number of degrees of freedom        ....  126

    -----------------------------------------------------------------
                    Redundant Internal Coordinates


    -----------------------------------------------------------------
         Definition                    Initial Value    d2E/dq (diagonal element)
    -----------------------------------------------------------------
      1. B(H   1,O   0)                  0.9686         0.000000   
      2. B(H   2,O   0)                  0.9716         0.000000   
      3. B(H   4,O   3)                  0.9727         0.000000   
      4. B(H   5,O   3)                  0.9931         0.000000   
      5. B(H   7,O   6)                  0.9841         0.000000   
      6. B(H   7,H   4)                  2.1700         0.000000   
      7. B(H   7,O   3)                  1.7619         0.000000   
      8. B(H   8,O   6)                  0.9777         0.000000   
      9. B(H  10,O   9)                  0.9697         0.000000   
     10. B(H  11,O   9)                  0.9699         0.000000   
     11. B(O  12,H  11)                  1.9158         0.000000   
     12. B(H  13,O  12)                  0.9607         0.000000   
     13. B(H  14,O  12)                  0.9774         0.000000   
     14. B(H  16,O  15)                  0.9927         0.000000   
     15. B(H  17,O  15)                  0.9617         0.000000   
     16. B(O  18,H   2)                  1.9096         0.000000   
     17. B(O  18,H   4)                  1.9049         0.000000   
     18. B(H  19,H   2)                  2.3428         0.000000   
     19. B(H  19,O  18)                  0.9893         0.000000   
     20. B(H  19,H   4)                  2.3029         0.000000   
     21. B(H  20,O  18)                  0.9608         0.000000   
     22. B(O  21,H  19)                  1.6963         0.000000   
     23. B(H  22,O  21)                  0.9700         0.000000   
     24. B(H  22,O  15)                  1.9991         0.000000   
     25. B(H  23,O   6)                  1.9782         0.000000   
     26. B(H  23,H  19)                  2.1347         0.000000   
     27. B(H  23,O  21)                  0.9718         0.000000   
     28. B(O  24,H  10)                  2.0321         0.000000   
     29. B(H  25,H   5)                  2.2486         0.000000   
     30. B(H  25,O   3)                  1.7825         0.000000   
     31. B(H  25,O  24)                  0.9796         0.000000   
     32. B(H  26,O  24)                  0.9610         0.000000   
     33. B(O  27,H  14)                  1.8249         0.000000   
     34. B(O  27,H   1)                  1.9830         0.000000   
     35. B(H  28,H  16)                  2.2403         0.000000   
     36. B(H  28,O  15)                  1.7496         0.000000   
     37. B(H  28,O  27)                  0.9829         0.000000   
     38. B(H  29,O  27)                  0.9616         0.000000   
     39. B(H  31,O  30)                  0.9700         0.000000   
     40. B(H  32,O  30)                  0.9665         0.000000   
     41. B(O  33,H  16)                  1.6568         0.000000   
     42. B(O  33,H   8)                  1.8211         0.000000   
     43. B(H  34,H  11)                  2.2600         0.000000   
     44. B(H  34,O   9)                  1.7635         0.000000   
     45. B(H  34,O  33)                  0.9816         0.000000   
     46. B(H  34,H   8)                  1.9778         0.000000   
     47. B(H  35,O  33)                  0.9848         0.000000   
     48. B(H  35,H  32)                  2.1744         0.000000   
     49. B(H  35,O  30)                  1.7455         0.000000   
     50. B(H  35,H   8)                  2.1412         0.000000   
     51. B(O  36,H  32)                  2.2399         0.000000   
     52. B(H  37,O  36)                  1.0049         0.000000   
     53. B(H  37,H   8)                  1.9775         0.000000   
     54. B(H  37,O   6)                  1.6270         0.000000   
     55. B(H  38,O  36)                  0.9741         0.000000   
     56. B(H  38,O  24)                  2.0067         0.000000   
     57. B(O  39,H   5)                  1.6770         0.000000   
     58. B(H  40,H   1)                  2.1846         0.000000   
     59. B(H  40,O   0)                  1.8150         0.000000   
     60. B(H  40,O  39)                  0.9796         0.000000   
     61. B(H  40,H   5)                  2.0535         0.000000   
     62. B(H  40,H   2)                  2.2557         0.000000   
     63. B(H  41,H  14)                  2.3329         0.000000   
     64. B(H  41,O  12)                  1.9521         0.000000   
     65. B(H  41,O  39)                  0.9681         0.000000   
     66. B(C  42,H  38)                  2.5266         0.000000   
     67. B(C  42,H  37)                  2.3224         0.000000   
     68. B(C  42,O  36)                  1.9980         0.000000   
     69. B(N  43,C  42)                  1.1587         0.000000   
     70. B(N  43,H  31)                  2.1660         0.000000   
     71. A(H   2,O   0,H  40)          103.9459         0.000000   
     72. A(H   1,O   0,H   2)          105.7967         0.000000   
     73. A(H   1,O   0,H  40)           98.8389         0.000000   
     74. A(O  27,H   1,H  40)          111.9537         0.000000   
     75. A(O   0,H   1,H  40)           55.1775         0.000000   
     76. A(O   0,H   1,O  27)          165.2128         0.000000   
     77. A(O   0,H   2,H  19)          148.7516         0.000000   
     78. A(O   0,H   2,H  40)           51.3436         0.000000   
     79. A(O  18,H   2,H  19)           24.2738         0.000000   
     80. A(H  19,H   2,H  40)          122.9935         0.000000   
     81. A(O  18,H   2,H  40)          117.9506         0.000000   
     82. A(O   0,H   2,O  18)          166.1501         0.000000   
     83. A(H   4,O   3,H   7)          101.0727         0.000000   
     84. A(H   4,O   3,H  25)          141.2154         0.000000   
     85. A(H   7,O   3,H  25)           82.9960         0.000000   
     86. A(H   5,O   3,H   7)          121.6613         0.000000   
     87. A(H   5,O   3,H  25)          104.6080         0.000000   
     88. A(H   4,O   3,H   5)          105.5542         0.000000   
     89. A(O   3,H   4,H   7)           52.8300         0.000000   
     90. A(O  18,H   4,H  19)           24.9750         0.000000   
     91. A(O   3,H   4,H  19)          133.6746         0.000000   
     92. A(H   7,H   4,O  18)          110.7579         0.000000   
     93. A(H   7,H   4,H  19)           85.8297         0.000000   
     94. A(O   3,H   4,O  18)          153.4815         0.000000   
     95. A(O   3,H   5,H  40)          147.6151         0.000000   
     96. A(O   3,H   5,H  25)           50.0916         0.000000   
     97. A(H  25,H   5,H  40)          162.1501         0.000000   
     98. A(O  39,H   5,H  40)           28.2049         0.000000   
     99. A(H  25,H   5,O  39)          133.9707         0.000000   
    100. A(H   8,O   6,H  37)           95.5509         0.000000   
    101. A(H   7,O   6,H   8)          106.1301         0.000000   
    102. A(H   8,O   6,H  23)           95.1866         0.000000   
    103. A(H  23,O   6,H  37)          153.5527         0.000000   
    104. A(H   7,O   6,H  37)          106.1808         0.000000   
    105. A(H   7,O   6,H  23)           93.8832         0.000000   
    106. A(O   3,H   7,H   4)           26.0973         0.000000   
    107. A(H   4,H   7,O   6)          147.0499         0.000000   
    108. A(O   3,H   7,O   6)          167.5777         0.000000   
    109. A(O   6,H   8,O  33)          167.4301         0.000000   
    110. A(O   6,H   8,H  34)          141.8511         0.000000   
    111. A(O   6,H   8,H  37)           54.9726         0.000000   
    112. A(O  33,H   8,H  37)          112.6008         0.000000   
    113. A(H  35,H   8,H  37)           91.9942         0.000000   
    114. A(H  34,H   8,H  37)           97.1789         0.000000   
    115. A(H  34,H   8,H  35)           44.7802         0.000000   
    116. A(O  33,H   8,H  35)           27.2795         0.000000   
    117. A(O   6,H   8,H  35)          143.6757         0.000000   
    118. A(O  33,H   8,H  34)           29.5806         0.000000   
    119. A(H  11,O   9,H  34)          107.9957         0.000000   
    120. A(H  10,O   9,H  34)          127.4262         0.000000   
    121. A(H  10,O   9,H  11)          108.3273         0.000000   
    122. A(O   9,H  10,O  24)          171.8516         0.000000   
    123. A(O   9,H  11,O  12)          160.6187         0.000000   
    124. A(O   9,H  11,H  34)           47.9138         0.000000   
    125. A(O  12,H  11,H  34)          113.1942         0.000000   
    126. A(H  11,O  12,H  13)          116.6951         0.000000   
    127. A(H  13,O  12,H  41)          132.9028         0.000000   
    128. A(H  11,O  12,H  14)          113.3523         0.000000   
    129. A(H  11,O  12,H  41)           84.5261         0.000000   
    130. A(H  13,O  12,H  14)          107.2770         0.000000   
    131. A(H  14,O  12,H  41)          100.2098         0.000000   
    132. A(O  27,H  14,H  41)          115.2956         0.000000   
    133. A(O  12,H  14,H  41)           55.4395         0.000000   
    134. A(O  12,H  14,O  27)          169.9226         0.000000   
    135. A(H  17,O  15,H  28)          120.4300         0.000000   
    136. A(H  22,O  15,H  28)          100.7528         0.000000   
    137. A(H  16,O  15,H  17)          106.5450         0.000000   
    138. A(H  16,O  15,H  28)          106.2541         0.000000   
    139. A(H  17,O  15,H  22)          113.6697         0.000000   
    140. A(H  16,O  15,H  22)          108.5752         0.000000   
    141. A(H  28,H  16,O  33)          126.3347         0.000000   
    142. A(O  15,H  16,H  28)           48.5694         0.000000   
    143. A(O  15,H  16,O  33)          170.9612         0.000000   
    144. A(H   2,O  18,H  19)          103.2141         0.000000   
    145. A(H  19,O  18,H  20)          107.1008         0.000000   
    146. A(H   2,O  18,H  20)          121.2961         0.000000   
    147. A(H   2,O  18,H   4)           91.0931         0.000000   
    148. A(H   4,O  18,H  20)          129.4484         0.000000   
    149. A(H   4,O  18,H  19)          100.6402         0.000000   
    150. A(O  18,H  19,H  23)          144.7029         0.000000   
    151. A(H   4,H  19,O  21)          115.9773         0.000000   
    152. A(O  18,H  19,O  21)          170.3616         0.000000   
    153. A(O  21,H  19,H  23)           26.3443         0.000000   
    154. A(H   4,H  19,H  23)           91.6797         0.000000   
    155. A(H   2,H  19,H  23)          131.9341         0.000000   
    156. A(H   2,H  19,O  21)          127.3729         0.000000   
    157. A(H   2,H  19,H   4)           71.7545         0.000000   
    158. A(H   4,H  19,O  18)           54.3849         0.000000   
    159. A(H   2,H  19,O  18)           52.5121         0.000000   
    160. A(H  19,O  21,H  23)          102.8829         0.000000   
    161. A(H  19,O  21,H  22)          117.1070         0.000000   
    162. A(H  22,O  21,H  23)          103.4094         0.000000   
    163. A(O  15,H  22,O  21)          162.1754         0.000000   
    164. A(H  19,H  23,O  21)           50.7728         0.000000   
    165. A(O   6,H  23,H  19)          113.0977         0.000000   
    166. A(O   6,H  23,O  21)          147.7407         0.000000   
    167. A(H  26,O  24,H  38)          129.3738         0.000000   
    168. A(H  25,O  24,H  38)          115.3239         0.000000   
    169. A(H  10,O  24,H  38)           84.0753         0.000000   
    170. A(H  10,O  24,H  26)          121.2842         0.000000   
    171. A(H  10,O  24,H  25)           93.0612         0.000000   
    172. A(H  25,O  24,H  26)          106.7648         0.000000   
    173. A(O   3,H  25,H   5)           25.3004         0.000000   
    174. A(H   5,H  25,O  24)          139.6563         0.000000   
    175. A(O   3,H  25,O  24)          156.3933         0.000000   
    176. A(H  28,O  27,H  29)          106.9871         0.000000   
    177. A(H   1,O  27,H  14)           98.1197         0.000000   
    178. A(H  14,O  27,H  29)          119.5678         0.000000   
    179. A(H  14,O  27,H  28)          112.8690         0.000000   
    180. A(H   1,O  27,H  29)          107.6429         0.000000   
    181. A(H   1,O  27,H  28)          111.2267         0.000000   
    182. A(O  15,H  28,H  16)           25.1765         0.000000   
    183. A(H  16,H  28,O  27)          148.5455         0.000000   
    184. A(O  15,H  28,O  27)          170.3099         0.000000   
    185. A(H  31,O  30,H  32)          102.4437         0.000000   
    186. A(H  32,O  30,H  35)          102.7926         0.000000   
    187. A(H  31,O  30,H  35)          119.6531         0.000000   
    188. A(H  35,H  32,O  36)           97.4668         0.000000   
    189. A(O  30,H  32,O  36)          127.6273         0.000000   
    190. A(O  30,H  32,H  35)           51.5201         0.000000   
    191. A(H   8,O  33,H  35)           94.7734         0.000000   
    192. A(H   8,O  33,H  34)           84.0913         0.000000   
    193. A(H  34,O  33,H  35)          106.5660         0.000000   
    194. A(H   8,O  33,H  16)           82.3022         0.000000   
    195. A(H  16,O  33,H  35)          129.1930         0.000000   
    196. A(H  16,O  33,H  34)          123.3332         0.000000   
    197. A(H   8,H  34,O  33)           66.3281         0.000000   
    198. A(O   9,H  34,H  11)           24.0905         0.000000   
    199. A(H   8,H  34,H  11)          103.1046         0.000000   
    200. A(H  11,H  34,O  33)          151.9982         0.000000   
    201. A(H   8,H  34,O   9)           98.8746         0.000000   
    202. A(O   9,H  34,O  33)          164.8830         0.000000   
    203. A(O  30,H  35,H  32)           25.6874         0.000000   
    204. A(H   8,H  35,H  32)           99.5507         0.000000   
    205. A(H  32,H  35,O  33)          141.0883         0.000000   
    206. A(H   8,H  35,O  30)          111.3757         0.000000   
    207. A(O  30,H  35,O  33)          165.7328         0.000000   
    208. A(H   8,H  35,O  33)           57.9471         0.000000   
    209. A(H  37,O  36,H  38)          103.9919         0.000000   
    210. A(H  32,O  36,H  38)          150.8336         0.000000   
    211. A(H  32,O  36,H  37)           98.2335         0.000000   
    212. A(H  32,O  36,C  42)           84.2096         0.000000   
    213. A(H  38,O  36,C  42)          111.7574         0.000000   
    214. A(H  37,O  36,C  42)           95.5953         0.000000   
    215. A(O   6,H  37,H   8)           29.4765         0.000000   
    216. A(H   8,H  37,O  36)          145.6892         0.000000   
    217. A(O   6,H  37,O  36)          173.2818         0.000000   
    218. A(O  24,H  38,O  36)          133.1747         0.000000   
    219. A(H  40,O  39,H  41)          104.8736         0.000000   
    220. A(H   5,O  39,H  41)          113.6777         0.000000   
    221. A(H   5,O  39,H  40)           97.7840         0.000000   
    222. A(H   2,H  40,H   5)           87.3907         0.000000   
    223. A(H   1,H  40,H   5)          103.8175         0.000000   
    224. A(O   0,H  40,H   5)          109.5534         0.000000   
    225. A(H   5,H  40,O  39)           54.0111         0.000000   
    226. A(H   1,H  40,H   2)           40.7517         0.000000   
    227. A(O   0,H  40,H   2)           24.7105         0.000000   
    228. A(H   2,H  40,O  39)          141.3942         0.000000   
    229. A(O   0,H  40,H   1)           25.9836         0.000000   
    230. A(H   1,H  40,O  39)          140.3119         0.000000   
    231. A(O   0,H  40,O  39)          161.2341         0.000000   
    232. A(O  12,H  41,H  14)           24.3507         0.000000   
    233. A(H  14,H  41,O  39)          134.1128         0.000000   
    234. A(O  12,H  41,O  39)          154.8525         0.000000   
    235. A(O  36,C  42,N  43)          129.1136         0.000000   
    236. D(O  27,H   1,O   0,H  40)     31.6996         0.000000   
    237. D(H  40,H   1,O   0,H   2)    107.3056         0.000000   
    238. D(O  27,H   1,O   0,H   2)    139.0053         0.000000   
    239. D(O  18,H   2,O   0,H  40)     42.5196         0.000000   
    240. D(H  40,H   2,O   0,H   1)   -103.5793         0.000000   
    241. D(H  19,H   2,O   0,H   1)    -12.0918         0.000000   
    242. D(O  18,H   2,O   0,H   1)    -61.0597         0.000000   
    243. D(H  19,H   2,O   0,H  40)     91.4874         0.000000   
    244. D(H   7,H   4,O   3,H   5)   -127.5647         0.000000   
    245. D(O  18,H   4,O   3,H  25)    151.0323         0.000000   
    246. D(H  19,H   4,O   3,H   7)     31.7773         0.000000   
    247. D(O  18,H   4,O   3,H   7)     58.4432         0.000000   
    248. D(H  19,H   4,O   3,H  25)    124.3664         0.000000   
    249. D(H   7,H   4,O   3,H  25)     92.5891         0.000000   
    250. D(O  18,H   4,O   3,H   5)    -69.1215         0.000000   
    251. D(H  19,H   4,O   3,H   5)    -95.7874         0.000000   
    252. D(H  40,H   5,O   3,H   4)     21.1783         0.000000   
    253. D(H  40,H   5,O   3,H  25)    176.5066         0.000000   
    254. D(H  25,H   5,O   3,H   4)   -155.3283         0.000000   
    255. D(H  40,H   5,O   3,H   7)    -92.7669         0.000000   
    256. D(H  25,H   5,O   3,H   7)     90.7265         0.000000   
    257. D(O   6,H   7,O   3,H   5)   -177.3847         0.000000   
    258. D(O   3,H   7,H   4,H  19)   -157.5485         0.000000   
    259. D(H   4,H   7,O   3,H   5)    116.2121         0.000000   
    260. D(O   6,H   7,H   4,O   3)   -158.7506         0.000000   
    261. D(O   3,H   7,O   6,H   8)    179.8077         0.000000   
    262. D(O   6,H   7,H   4,H  19)     43.7009         0.000000   
    263. D(O   3,H   7,H   4,O  18)   -155.9915         0.000000   
    264. D(O   6,H   7,H   4,O  18)     45.2579         0.000000   
    265. D(H   4,H   7,O   6,H  37)    126.7560         0.000000   
    266. D(O   3,H   7,O   6,H  37)     78.9271         0.000000   
    267. D(O   6,H   7,O   3,H   4)     66.4032         0.000000   
    268. D(H   4,H   7,O   3,H  25)   -140.9160         0.000000   
    269. D(O   3,H   7,O   6,H  23)    -83.6491         0.000000   
    270. D(H   4,H   7,O   6,H   8)   -132.3633         0.000000   
    271. D(O   6,H   7,O   3,H  25)    -74.5128         0.000000   
    272. D(H   4,H   7,O   6,H  23)    -35.8202         0.000000   
    273. D(H  35,H   8,O   6,H  37)    -28.1639         0.000000   
    274. D(H  37,H   8,O   6,H  23)    155.7948         0.000000   
    275. D(H  35,H   8,O   6,H  23)    127.6309         0.000000   
    276. D(H  35,H   8,O   6,H   7)   -136.8004         0.000000   
    277. D(O  33,H   8,O   6,H   7)    -99.4028         0.000000   
    278. D(H  34,H   8,O   6,H  23)   -154.3927         0.000000   
    279. D(H  34,H   8,O   6,H   7)    -58.8240         0.000000   
    280. D(O  33,H   8,O   6,H  23)    165.0285         0.000000   
    281. D(H  34,H   8,O   6,H  37)     49.8125         0.000000   
    282. D(O  33,H   8,O   6,H  37)      9.2337         0.000000   
    283. D(H  37,H   8,O   6,H   7)   -108.6365         0.000000   
    284. D(O  24,H  10,O   9,H  34)     27.0519         0.000000   
    285. D(O  24,H  10,O   9,H  11)   -104.5016         0.000000   
    286. D(O  12,H  11,O   9,H  34)     14.5180         0.000000   
    287. D(H  34,H  11,O   9,H  10)    141.3288         0.000000   
    288. D(O  12,H  11,O   9,H  10)    155.8469         0.000000   
    289. D(H  41,O  12,H  11,H  34)   -131.5417         0.000000   
    290. D(H  13,O  12,H  11,H  34)     92.6280         0.000000   
    291. D(H  14,O  12,H  11,O   9)    -44.4428         0.000000   
    292. D(H  41,O  12,H  11,O   9)   -143.2192         0.000000   
    293. D(H  14,O  12,H  11,H  34)    -32.7653         0.000000   
    294. D(H  13,O  12,H  11,O   9)     80.9505         0.000000   
    295. D(H  41,H  14,O  12,H  13)    141.2983         0.000000   
    296. D(O  27,H  14,O  12,H  11)    -64.0136         0.000000   
    297. D(O  27,H  14,O  12,H  13)    165.6908         0.000000   
    298. D(O  27,H  14,O  12,H  41)     24.3925         0.000000   
    299. D(H  41,H  14,O  12,H  11)    -88.4061         0.000000   
    300. D(H  28,H  16,O  15,H  22)    107.6377         0.000000   
    301. D(O  33,H  16,O  15,H  22)     48.8245         0.000000   
    302. D(H  28,H  16,O  15,H  17)   -129.5662         0.000000   
    303. D(O  33,H  16,O  15,H  17)    171.6206         0.000000   
    304. D(O  33,H  16,O  15,H  28)    -58.8132         0.000000   
    305. D(H  19,O  18,H   4,H   7)     -3.6801         0.000000   
    306. D(H   2,O  18,H   4,H  19)    103.6633         0.000000   
    307. D(H   2,O  18,H   4,O   3)     53.4188         0.000000   
    308. D(H  20,O  18,H   4,H   7)   -126.5032         0.000000   
    309. D(H  19,O  18,H   4,O   3)    -50.2445         0.000000   
    310. D(H  20,O  18,H   4,O   3)   -173.0676         0.000000   
    311. D(H   4,O  18,H   2,H  19)   -101.1966         0.000000   
    312. D(H  20,O  18,H   2,H  40)   -131.4087         0.000000   
    313. D(H   4,O  18,H   2,H  40)      7.6440         0.000000   
    314. D(H  20,O  18,H   4,H  19)   -122.8231         0.000000   
    315. D(H   4,O  18,H   2,O   0)    -29.0443         0.000000   
    316. D(H   2,O  18,H   4,H   7)     99.9832         0.000000   
    317. D(H  19,O  18,H   2,H  40)    108.8406         0.000000   
    318. D(H  20,O  18,H   2,O   0)   -168.0970         0.000000   
    319. D(H  20,O  18,H   2,H  19)    119.7507         0.000000   
    320. D(H  19,O  18,H   2,O   0)     72.1523         0.000000   
    321. D(H  23,H  19,O  18,H   4)    -18.3019         0.000000   
    322. D(H  23,H  19,O  18,H   2)   -111.9743         0.000000   
    323. D(H  23,H  19,O  18,H  20)    118.9380         0.000000   
    324. D(O  21,H  19,O  18,H   2)    -93.0192         0.000000   
    325. D(O  21,H  19,O  18,H  20)    137.8931         0.000000   
    326. D(O  21,H  19,O  18,H   4)      0.6532         0.000000   
    327. D(H   2,H  19,O  18,H   4)     93.6724         0.000000   
    328. D(H   2,H  19,O  18,H  20)   -129.0877         0.000000   
    329. D(H  23,H  19,H   4,H   7)    -13.9087         0.000000   
    330. D(H  23,H  19,H   4,O   3)    -38.7906         0.000000   
    331. D(O  21,H  19,H   4,O  18)   -179.8783         0.000000   
    332. D(O  21,H  19,H   4,H   7)     -3.3284         0.000000   
    333. D(H   2,H  19,H   4,O  18)    -56.4882         0.000000   
    334. D(H   2,H  19,H   4,H   7)    120.0618         0.000000   
    335. D(O  21,H  19,H   4,O   3)    -28.2102         0.000000   
    336. D(H   2,H  19,H   4,O   3)     95.1799         0.000000   
    337. D(O  18,H  19,H   4,H   7)    176.5500         0.000000   
    338. D(O  18,H  19,H   4,O   3)    151.6681         0.000000   
    339. D(H  23,H  19,H   2,O  18)    133.9210         0.000000   
    340. D(H  23,H  19,H   2,H  40)     48.5276         0.000000   
    341. D(H  23,H  19,H   4,O  18)    169.5413         0.000000   
    342. D(O  21,H  19,H   2,O  18)    167.8548         0.000000   
    343. D(O  21,H  19,H   2,H  40)     82.4614         0.000000   
    344. D(H   4,H  19,O  18,H  20)    137.2399         0.000000   
    345. D(H   4,H  19,O  18,H   2)    -93.6724         0.000000   
    346. D(O  21,H  19,H   2,O   0)     13.9107         0.000000   
    347. D(H   4,H  19,H   2,O  18)     58.6743         0.000000   
    348. D(H   4,H  19,H   2,H  40)    -26.7192         0.000000   
    349. D(H   4,H  19,H   2,O   0)    -95.2699         0.000000   
    350. D(H  23,H  19,H   2,O   0)    -20.0231         0.000000   
    351. D(O  18,H  19,H   2,O   0)   -153.9441         0.000000   
    352. D(O  18,H  19,H   2,H  40)    -85.3934         0.000000   
    353. D(H  23,O  21,H  19,H   2)   -110.6409         0.000000   
    354. D(H  23,O  21,H  19,H   4)    -24.4303         0.000000   
    355. D(H  23,O  21,H  19,O  18)    -25.0210         0.000000   
    356. D(H  22,O  21,H  19,H  23)    112.6020         0.000000   
    357. D(H  22,O  21,H  19,H   4)     88.1717         0.000000   
    358. D(H  22,O  21,H  19,O  18)     87.5810         0.000000   
    359. D(H  22,O  21,H  19,H   2)      1.9611         0.000000   
    360. D(O  21,H  22,O  15,H  17)   -125.9548         0.000000   
    361. D(O  21,H  22,O  15,H  28)    103.7945         0.000000   
    362. D(O  21,H  22,O  15,H  16)     -7.5747         0.000000   
    363. D(O  15,H  22,O  21,H  19)   -100.4735         0.000000   
    364. D(O  15,H  22,O  21,H  23)     11.8310         0.000000   
    365. D(H  19,H  23,O  21,H  22)   -122.3472         0.000000   
    366. D(O   6,H  23,O  21,H  19)     69.8424         0.000000   
    367. D(O   6,H  23,H  19,O  21)   -146.9942         0.000000   
    368. D(O   6,H  23,H  19,H   4)     11.1693         0.000000   
    369. D(O   6,H  23,H  19,H   2)    -55.5831         0.000000   
    370. D(O   6,H  23,H  19,O  18)     25.9662         0.000000   
    371. D(O  21,H  23,H  19,H   4)    158.1634         0.000000   
    372. D(O  21,H  23,H  19,H   2)     91.4111         0.000000   
    373. D(O  21,H  23,H  19,O  18)    172.9604         0.000000   
    374. D(H  19,H  23,O   6,H  37)   -134.9266         0.000000   
    375. D(H  19,H  23,O   6,H   8)    111.4602         0.000000   
    376. D(O   6,H  23,O  21,H  22)    -52.5047         0.000000   
    377. D(O  21,H  23,O   6,H  37)    172.8345         0.000000   
    378. D(O  21,H  23,O   6,H   8)     59.2214         0.000000   
    379. D(H  19,H  23,O   6,H   7)      4.8556         0.000000   
    380. D(O  21,H  23,O   6,H   7)    -47.3832         0.000000   
    381. D(H  38,O  24,H  10,O   9)    -65.0235         0.000000   
    382. D(H  26,O  24,H  10,O   9)    161.8795         0.000000   
    383. D(H  25,O  24,H  10,O   9)     50.1333         0.000000   
    384. D(O   3,H  25,O  24,H  26)   -129.7561         0.000000   
    385. D(H   5,H  25,O  24,H  38)    116.6314         0.000000   
    386. D(H   5,H  25,O  24,H  10)     31.7404         0.000000   
    387. D(H   5,H  25,O  24,H  26)    -92.2614         0.000000   
    388. D(O   3,H  25,O  24,H  10)     -5.7543         0.000000   
    389. D(O   3,H  25,O  24,H  38)     79.1367         0.000000   
    390. D(O   3,H  25,H   5,H  40)   -173.8881         0.000000   
    391. D(O   3,H  25,H   5,O  39)   -176.3923         0.000000   
    392. D(O  24,H  25,H   5,H  40)     40.8875         0.000000   
    393. D(O  24,H  25,H   5,O  39)     38.3833         0.000000   
    394. D(O  24,H  25,H   5,O   3)   -145.2244         0.000000   
    395. D(H   5,H  25,O   3,H   4)    140.0605         0.000000   
    396. D(O  24,H  25,O   3,H   7)    -53.7371         0.000000   
    397. D(O  24,H  25,O   3,H   5)     67.2262         0.000000   
    398. D(H   5,H  25,O   3,H   7)   -120.9634         0.000000   
    399. D(O  24,H  25,O   3,H   4)   -152.7133         0.000000   
    400. D(H   1,O  27,H  14,H  41)     -3.7442         0.000000   
    401. D(H  29,O  27,H  14,H  41)   -119.3982         0.000000   
    402. D(H  28,O  27,H  14,H  41)    113.4560         0.000000   
    403. D(H  29,O  27,H   1,H  40)    126.3349         0.000000   
    404. D(H  28,O  27,H   1,H  40)   -116.7660         0.000000   
    405. D(H  29,O  27,H   1,O   0)     98.6186         0.000000   
    406. D(H  28,O  27,H   1,O   0)   -144.4823         0.000000   
    407. D(H  28,O  27,H  14,O  12)     91.3592         0.000000   
    408. D(H  14,O  27,H   1,H  40)      1.6942         0.000000   
    409. D(H   1,O  27,H  14,O  12)    -25.8411         0.000000   
    410. D(H  29,O  27,H  14,O  12)   -141.4951         0.000000   
    411. D(H  14,O  27,H   1,O   0)    -26.0221         0.000000   
    412. D(H  16,H  28,O  27,H  14)    -10.5062         0.000000   
    413. D(H  16,H  28,O  27,H   1)     98.6577         0.000000   
    414. D(H  16,H  28,O  27,H  29)   -144.0436         0.000000   
    415. D(O  15,H  28,O  27,H   1)     55.5439         0.000000   
    416. D(O  15,H  28,O  27,H  29)    172.8426         0.000000   
    417. D(O  15,H  28,H  16,O  33)    170.3960         0.000000   
    418. D(O  27,H  28,H  16,O  33)      6.0850         0.000000   
    419. D(O  27,H  28,H  16,O  15)   -164.3110         0.000000   
    420. D(H  16,H  28,O  15,H  22)   -113.1481         0.000000   
    421. D(O  15,H  28,O  27,H  14)    -53.6200         0.000000   
    422. D(H  16,H  28,O  15,H  17)    121.0155         0.000000   
    423. D(O  27,H  28,O  15,H  22)    -56.1825         0.000000   
    424. D(O  27,H  28,O  15,H  17)    177.9811         0.000000   
    425. D(O  27,H  28,O  15,H  16)     56.9656         0.000000   
    426. D(O  36,H  32,O  30,H  35)    -66.2260         0.000000   
    427. D(O  36,H  32,O  30,H  31)     58.4998         0.000000   
    428. D(H  35,H  32,O  30,H  31)    124.7258         0.000000   
    429. D(H   8,O  33,H  16,H  28)    -91.3301         0.000000   
    430. D(H   8,O  33,H  16,O  15)    -38.5601         0.000000   
    431. D(H  35,O  33,H  16,O  15)   -128.4533         0.000000   
    432. D(H  34,O  33,H  16,H  28)    -13.6420         0.000000   
    433. D(H  34,O  33,H  16,O  15)     39.1279         0.000000   
    434. D(H  16,O  33,H   8,H  35)   -128.9479         0.000000   
    435. D(H  16,O  33,H   8,H  34)    124.8517         0.000000   
    436. D(H  16,O  33,H   8,H  37)   -172.4802         0.000000   
    437. D(H  16,O  33,H   8,O   6)    179.3372         0.000000   
    438. D(H  35,O  33,H   8,H  34)   -106.2004         0.000000   
    439. D(H  35,O  33,H   8,H  37)    -43.5323         0.000000   
    440. D(H  35,O  33,H   8,O   6)    -51.7149         0.000000   
    441. D(H  35,O  33,H  16,H  28)    178.7767         0.000000   
    442. D(H  34,O  33,H   8,H  35)    106.2004         0.000000   
    443. D(H  34,O  33,H   8,H  37)     62.6682         0.000000   
    444. D(H  34,O  33,H   8,O   6)     54.4855         0.000000   
    445. D(H  11,H  34,O  33,H  16)     -4.0328         0.000000   
    446. D(H  11,H  34,O  33,H   8)     72.7144         0.000000   
    447. D(H  11,H  34,O  33,H  35)    165.9531         0.000000   
    448. D(O   9,H  34,O  33,H   8)     12.3378         0.000000   
    449. D(O   9,H  34,O  33,H  35)    105.5765         0.000000   
    450. D(H   8,H  34,O  33,H  16)    -76.7472         0.000000   
    451. D(O   9,H  34,H  11,O  12)   -174.8073         0.000000   
    452. D(H   8,H  34,H  11,O  12)    102.8117         0.000000   
    453. D(H   8,H  34,H  11,O   9)    -82.3810         0.000000   
    454. D(O  33,H  34,H  11,O  12)     38.9312         0.000000   
    455. D(O  33,H  34,H  11,O   9)   -146.2615         0.000000   
    456. D(H  11,H  34,O   9,H  10)   -131.6759         0.000000   
    457. D(H   8,H  34,O   9,H  11)    102.2971         0.000000   
    458. D(H   8,H  34,O   9,H  10)    -29.3788         0.000000   
    459. D(O  33,H  34,O   9,H  11)     90.8732         0.000000   
    460. D(O  33,H  34,O   9,H  10)    -40.8027         0.000000   
    461. D(H  11,H  34,H   8,H  35)    168.7346         0.000000   
    462. D(H  11,H  34,H   8,O  33)   -152.5947         0.000000   
    463. D(H  11,H  34,H   8,H  37)     83.1584         0.000000   
    464. D(H  11,H  34,H   8,O   6)     44.0704         0.000000   
    465. D(H   8,H  34,O  33,H  35)     93.2387         0.000000   
    466. D(O   9,H  34,H   8,H  35)    144.5625         0.000000   
    467. D(O   9,H  34,H   8,O  33)   -176.7668         0.000000   
    468. D(O   9,H  34,H   8,H  37)     58.9863         0.000000   
    469. D(O   9,H  34,O  33,H  16)    -64.4094         0.000000   
    470. D(O   9,H  34,H   8,O   6)     19.8983         0.000000   
    471. D(O  33,H  34,H   8,H  35)    -38.6707         0.000000   
    472. D(O  33,H  34,H   8,H  37)   -124.2468         0.000000   
    473. D(O  33,H  34,H   8,O   6)   -163.3349         0.000000   
    474. D(H  32,H  35,O  30,H  31)   -112.5525         0.000000   
    475. D(H   8,H  35,O  30,H  32)     66.2538         0.000000   
    476. D(H   8,H  35,O  30,H  31)    -46.2987         0.000000   
    477. D(O  33,H  35,O  30,H  31)    -85.6489         0.000000   
    478. D(H  32,H  35,H   8,H  34)   -103.3532         0.000000   
    479. D(H  32,H  35,H   8,O  33)   -145.6514         0.000000   
    480. D(H  32,H  35,H   8,H  37)     -5.1645         0.000000   
    481. D(H  32,H  35,H   8,O   6)     17.5873         0.000000   
    482. D(O  30,H  35,H   8,H  34)   -127.0777         0.000000   
    483. D(O  30,H  35,H   8,O  33)   -169.3759         0.000000   
    484. D(O  30,H  35,H   8,H  37)    -28.8890         0.000000   
    485. D(O  33,H  35,O  30,H  32)     26.9036         0.000000   
    486. D(O  30,H  35,H   8,O   6)     -6.1372         0.000000   
    487. D(O  33,H  35,H   8,H  34)     42.2982         0.000000   
    488. D(O  33,H  35,H   8,H  37)    140.4869         0.000000   
    489. D(O  33,H  35,H  32,O  30)   -169.7738         0.000000   
    490. D(O  33,H  35,H   8,O   6)    163.2387         0.000000   
    491. D(H  32,H  35,O  33,H   8)     62.3534         0.000000   
    492. D(H  32,H  35,O  33,H  34)    -22.8893         0.000000   
    493. D(O  30,H  35,O  33,H  16)    128.1109         0.000000   
    494. D(O  30,H  35,O  33,H   8)     44.1580         0.000000   
    495. D(O  30,H  35,O  33,H  34)    -41.0847         0.000000   
    496. D(H   8,H  35,O  33,H  16)     83.9529         0.000000   
    497. D(H   8,H  35,O  33,H  34)    -85.2427         0.000000   
    498. D(O  30,H  35,H  32,O  36)    133.0305         0.000000   
    499. D(H   8,H  35,H  32,O  36)     12.8394         0.000000   
    500. D(H   8,H  35,H  32,O  30)   -120.1911         0.000000   
    501. D(H  32,H  35,O  33,H  16)    146.3063         0.000000   
    502. D(O  33,H  35,H  32,O  36)    -36.7433         0.000000   
    503. D(C  42,O  36,H  32,H  35)   -117.5152         0.000000   
    504. D(C  42,O  36,H  32,O  30)    -71.2520         0.000000   
    505. D(H  38,O  36,H  32,H  35)    116.8367         0.000000   
    506. D(H  38,O  36,H  32,O  30)    163.0999         0.000000   
    507. D(H  37,O  36,H  32,H  35)    -22.6767         0.000000   
    508. D(H  37,O  36,H  32,O  30)     23.5866         0.000000   
    509. D(H   8,H  37,O  36,C  42)    119.8013         0.000000   
    510. D(H   8,H  37,O  36,H  32)     34.8644         0.000000   
    511. D(H   8,H  37,O  36,H  38)   -126.1036         0.000000   
    512. D(O   6,H  37,O  36,C  42)    160.1759         0.000000   
    513. D(O   6,H  37,O  36,H  38)    -85.7290         0.000000   
    514. D(O   6,H  37,H   8,H  35)    163.7542         0.000000   
    515. D(O   6,H  37,H   8,H  34)   -151.6004         0.000000   
    516. D(O   6,H  37,H   8,O  33)   -177.8322         0.000000   
    517. D(O  36,H  37,H   8,H  35)    -25.1050         0.000000   
    518. D(O  36,H  37,H   8,H  34)     19.5403         0.000000   
    519. D(O  36,H  37,H   8,O  33)     -6.6914         0.000000   
    520. D(O  36,H  37,H   8,O   6)    171.1408         0.000000   
    521. D(O   6,H  37,O  36,H  32)     75.2390         0.000000   
    522. D(H   8,H  37,O   6,H  23)   -113.5347         0.000000   
    523. D(H   8,H  37,O   6,H   7)    108.5929         0.000000   
    524. D(O  36,H  37,O   6,H  23)   -161.4418         0.000000   
    525. D(O  36,H  37,O   6,H   8)    -47.9072         0.000000   
    526. D(O  36,H  37,O   6,H   7)     60.6857         0.000000   
    527. D(O  24,H  38,O  36,C  42)    144.4736         0.000000   
    528. D(O  24,H  38,O  36,H  32)    -96.0405         0.000000   
    529. D(O  24,H  38,O  36,H  37)     42.4896         0.000000   
    530. D(O  36,H  38,O  24,H  10)     30.6431         0.000000   
    531. D(O  36,H  38,O  24,H  26)    156.8144         0.000000   
    532. D(O  36,H  38,O  24,H  25)    -59.9465         0.000000   
    533. D(H  41,O  39,H   5,H  25)    -71.5744         0.000000   
    534. D(H  41,O  39,H   5,H  40)    110.0495         0.000000   
    535. D(H  40,O  39,H   5,H  25)    178.3762         0.000000   
    536. D(H  41,O  39,O   3,H  25)    -70.1250         0.000000   
    537. D(H  41,O  39,O   3,H   7)     22.7410         0.000000   
    538. D(H  41,O  39,O   3,H   4)    135.1148         0.000000   
    539. D(H  40,O  39,O   3,H  25)   -179.8000         0.000000   
    540. D(H  40,O  39,O   3,H   7)    -86.9340         0.000000   
    541. D(H  40,O  39,O   3,H   4)     25.4398         0.000000   
    542. D(H   5,H  40,O  39,H  41)   -117.1089         0.000000   
    543. D(H   2,H  40,O  39,H  41)   -118.4205         0.000000   
    544. D(H   1,H  40,O  39,H   5)     65.6108         0.000000   
    545. D(H   1,H  40,O  39,H  41)    -51.4981         0.000000   
    546. D(O   0,H  40,O  39,H  41)    -85.5100         0.000000   
    547. D(H   2,H  40,H   5,H  25)    175.3658         0.000000   
    548. D(H   2,H  40,H   5,O  39)    179.1808         0.000000   
    549. D(H   2,H  40,H   5,O   3)      4.1367         0.000000   
    550. D(H   1,H  40,H   5,H  25)   -147.0201         0.000000   
    551. D(H   1,H  40,H   5,O  39)   -143.2051         0.000000   
    552. D(H   1,H  40,H   5,O   3)     41.7508         0.000000   
    553. D(O   0,H  40,H   5,O  39)   -169.6956         0.000000   
    554. D(O   0,H  40,H   5,O   3)     15.2603         0.000000   
    555. D(O  39,H  40,H   5,H  25)     -3.8150         0.000000   
    556. D(H   5,H  40,H   2,H  19)     12.4124         0.000000   
    557. D(H   5,H  40,H   2,O  18)    -15.2254         0.000000   
    558. D(H   5,H  40,H   2,O   0)    154.2215         0.000000   
    559. D(H   1,H  40,H   2,H  19)   -102.3673         0.000000   
    560. D(H   1,H  40,H   2,O  18)   -130.0051         0.000000   
    561. D(H   1,H  40,H   2,O   0)     39.4418         0.000000   
    562. D(O   0,H  40,H   2,H  19)   -141.8091         0.000000   
    563. D(O   0,H  40,H   2,O  18)   -169.4469         0.000000   
    564. D(O  39,H  40,H   2,H  19)     13.4747         0.000000   
    565. D(O  39,H  40,H   5,O   3)   -175.0441         0.000000   
    566. D(O  39,H  40,H   2,O  18)    -14.1631         0.000000   
    567. D(O  39,H  40,H   2,O   0)    155.2838         0.000000   
    568. D(H   5,H  40,H   1,O  27)     81.9313         0.000000   
    569. D(O   0,H  40,H   5,H  25)   -173.5106         0.000000   
    570. D(H   5,H  40,H   1,O   0)   -106.3829         0.000000   
    571. D(H   2,H  40,H   1,O  27)    151.0007         0.000000   
    572. D(H   2,H  40,H   1,O   0)    -37.3134         0.000000   
    573. D(O   0,H  40,H   1,O  27)   -171.6859         0.000000   
    574. D(O  39,H  40,H   1,O  27)     32.5651         0.000000   
    575. D(O  39,H  40,H   1,O   0)   -155.7490         0.000000   
    576. D(H   5,H  40,O   0,H   2)    -27.4536         0.000000   
    577. D(O   0,H  40,O  39,H   5)     31.5988         0.000000   
    578. D(H   5,H  40,O   0,H   1)     81.3594         0.000000   
    579. D(H   2,H  40,O   0,H   1)    108.8129         0.000000   
    580. D(H   1,H  40,O   0,H   2)   -108.8129         0.000000   
    581. D(H   2,H  40,O  39,H   5)     -1.3116         0.000000   
    582. D(O  39,H  40,O   0,H   2)    -54.1912         0.000000   
    583. D(O  39,H  40,O   0,H   1)     54.6218         0.000000   
    584. D(H  14,H  41,O  39,H   5)    -64.4483         0.000000   
    585. D(O  12,H  41,O  39,H   5)    -41.4934         0.000000   
    586. D(O  12,H  41,O  39,H  40)     64.1397         0.000000   
    587. D(O  12,H  41,H  14,O  27)   -175.4156         0.000000   
    588. D(O  39,H  41,H  14,O  27)    -19.1159         0.000000   
    589. D(O  39,H  41,H  14,O  12)    156.2997         0.000000   
    590. D(H  14,H  41,O  12,H  11)    112.7895         0.000000   
    591. D(H  14,H  41,O  12,H  13)   -125.4047         0.000000   
    592. D(O  39,H  41,O  12,H  11)     70.0149         0.000000   
    593. D(H  14,H  41,O  39,H  40)     41.1848         0.000000   
    594. D(O  39,H  41,O  12,H  14)    -42.7745         0.000000   
    595. D(O  39,H  41,O  12,H  13)   -168.1793         0.000000   
    596. D(N  43,C  42,O  36,H  32)     30.5045         0.000000   
    597. D(N  43,C  42,O  36,H  38)   -174.7348         0.000000   
    598. D(N  43,C  42,O  36,H  37)    -67.2366         0.000000   
    -----------------------------------------------------------------

Number of atoms                         .... 44
Number of degrees of freedom            .... 598

         *************************************************************
         *                GEOMETRY OPTIMIZATION CYCLE   1            *
         *************************************************************
---------------------------------
CARTESIAN COORDINATES (ANGSTROEM)
---------------------------------
  O      2.814389   -0.739897    2.320997
  H      2.533134   -1.349282    1.622603
  H      2.031507   -0.596891    2.878319
  O      0.119663    1.632031    1.419787
  H      0.124181    1.264377    2.320283
  H      1.064625    1.603490    1.115758
  O     -1.952946    0.196771    0.369151
  H     -1.126998    0.646927    0.658337
  H     -1.692038   -0.415868   -0.346678
  O     -0.000676    1.099563   -2.061483
  H     -0.266033    1.891843   -1.569263
  H      0.935547    0.925417   -1.877328
  O      2.594217   -0.012326   -1.678219
  H      3.097177   -0.174747   -2.480460
  H      2.502298   -0.868022   -1.215002
  O     -0.379353   -3.028098   -0.199670
  H     -0.773726   -2.442282   -0.897371
  H     -0.677308   -3.921995   -0.392136
  O      0.314474   -0.148631    3.583474
  H     -0.279358   -0.831795    3.184202
  H      0.148209   -0.148025    4.529753
  O     -1.341586   -1.810304    2.294408
  H     -0.955293   -2.358843    1.593912
  H     -1.874689   -1.161942    1.804760
  O     -0.955599    3.370225   -0.357577
  H     -0.624424    2.931897    0.453429
  H     -0.569528    4.250071   -0.374489
  O      2.239778   -2.288026   -0.099284
  H      1.329191   -2.653951   -0.154486
  H      2.844986   -3.034632   -0.130997
  O     -3.803158   -0.523013   -2.773104
  H     -4.544795   -0.538765   -2.148149
  H     -3.634599    0.423486   -2.872456
  O     -1.340632   -1.266736   -1.917941
  H     -0.839653   -0.449999   -2.131066
  H     -2.247088   -1.143296   -2.282488
  O     -3.111455    1.895235   -1.267070
  H     -2.727845    1.249607   -0.599413
  H     -2.760483    2.759725   -0.987229
  O      2.695446    1.516199    0.734734
  H      2.932610    0.779116    1.334749
  H      2.869126    1.177692   -0.155425
  C     -5.012918    1.650549   -0.704373
  N     -5.690529    0.716014   -0.804948

----------------------------
CARTESIAN COORDINATES (A.U.)
----------------------------
  NO LB      ZA    FRAG     MASS         X           Y           Z
   0 O     8.0000    0    15.999    5.318425   -1.398202    4.386048
   1 H     1.0000    0     1.008    4.786929   -2.549774    3.066275
   2 H     1.0000    0     1.008    3.838993   -1.127961    5.439235
   3 O     8.0000    0    15.999    0.226131    3.084092    2.683008
   4 H     1.0000    0     1.008    0.234668    2.389326    4.384700
   5 H     1.0000    0     1.008    2.011851    3.030157    2.108477
   6 O     8.0000    0    15.999   -3.690533    0.371844    0.697595
   7 H     1.0000    0     1.008   -2.129717    1.222515    1.244077
   8 H     1.0000    0     1.008   -3.197489   -0.785877   -0.655126
   9 O     8.0000    0    15.999   -0.001278    2.077873   -3.895638
  10 H     1.0000    0     1.008   -0.502729    3.575065   -2.965476
  11 H     1.0000    0     1.008    1.767928    1.748784   -3.547635
  12 O     8.0000    0    15.999    4.902360   -0.023292   -3.171374
  13 H     1.0000    0     1.008    5.852817   -0.330224   -4.687390
  14 H     1.0000    0     1.008    4.728658   -1.640323   -2.296020
  15 O     8.0000    0    15.999   -0.716873   -5.722276   -0.377322
  16 H     1.0000    0     1.008   -1.462131   -4.615244   -1.695786
  17 H     1.0000    0     1.008   -1.279926   -7.411496   -0.741030
  18 O     8.0000    0    15.999    0.594269   -0.280872    6.771784
  19 H     1.0000    0     1.008   -0.527909   -1.571865    6.017270
  20 H     1.0000    0     1.008    0.280074   -0.279727    8.559993
  21 O     8.0000    0    15.999   -2.535229   -3.420980    4.335803
  22 H     1.0000    0     1.008   -1.805243   -4.457566    3.012057
  23 H     1.0000    0     1.008   -3.542649   -2.195752    3.410503
  24 O     8.0000    0    15.999   -1.805821    6.368802   -0.675722
  25 H     1.0000    0     1.008   -1.179991    5.540482    0.856857
  26 H     1.0000    0     1.008   -1.076252    8.031471   -0.707682
  27 O     8.0000    0    15.999    4.232568   -4.323742   -0.187619
  28 H     1.0000    0     1.008    2.511807   -5.015240   -0.291935
  29 H     1.0000    0     1.008    5.376244   -5.734624   -0.247548
  30 O     8.0000    0    15.999   -7.186928   -0.988352   -5.240407
  31 H     1.0000    0     1.008   -8.588417   -1.018119   -4.059413
  32 H     1.0000    0     1.008   -6.868397    0.800273   -5.428155
  33 O     8.0000    0    15.999   -2.533428   -2.393784   -3.624383
  34 H     1.0000    0     1.008   -1.586714   -0.850375   -4.027131
  35 H     1.0000    0     1.008   -4.246380   -2.160517   -4.313277
  36 O     8.0000    0    15.999   -5.879798    3.581475   -2.394415
  37 H     1.0000    0     1.008   -5.154880    2.361415   -1.132726
  38 H     1.0000    0     1.008   -5.216557    5.215124   -1.865593
  39 O     8.0000    0    15.999    5.093654    2.865200    1.388447
  40 H     1.0000    0     1.008    5.541829    1.472316    2.522310
  41 H     1.0000    0     1.008    5.421863    2.225516   -0.293712
  42 C     6.0000    0    12.011   -9.473042    3.119086   -1.331072
  43 N     7.0000    0    14.007  -10.753542    1.353071   -1.521131

--------------------------------
INTERNAL COORDINATES (ANGSTROEM)
--------------------------------
 O      0   0   0     0.000000000000     0.00000000     0.00000000
 H      1   0   0     0.968612045978     0.00000000     0.00000000
 H      1   2   0     0.971577607290   105.79672296     0.00000000
 O      3   1   2     3.278804562213   108.34481014   279.32853645
 H      4   3   1     0.972668399215    47.81773627   193.80818823
 H      4   3   1     0.993076930264    64.01140564   341.40814825
 O      4   3   1     2.731210898928   104.85470598   104.69796591
 H      7   4   3     0.984103112645     7.97684275   294.32688561
 H      7   4   3     0.977656346734   114.10693310   294.12454681
 O      9   7   4     2.845662272405   105.43385079   313.69057238
 H     10   9   7     0.969743552712    88.08471156   349.65515282
 H     10   9   7     0.969925148829   111.32658278    98.60217156
 O     12  10   9     1.915774157704   160.61867123    60.59526625
 H     13  12  10     0.960697918813   116.69505120    80.95052120
 H     13  12  10     0.977361168902   113.35226803   315.55721698
 O      9   7   4     2.927199721338   129.95002650    77.37562705
 H     16   9   7     0.992722116211    42.26334147   175.51844586
 H     16   9   7     0.961702138461   132.88205836   111.88173585
 O      5   4   3     1.904850080840   153.48153728   320.87555831
 H     19   5   4     0.989326071830   100.64016767   309.75554149
 H     19   5   4     0.960775035307   129.44842380   186.93241057
 O     20  19   5     1.696332140067   170.36159971     0.65322152
 H     22  20  19     0.969953912583   117.10701558    87.58098929
 H     22  20  19     0.971765541250   102.88289482   334.97896404
 O     11  10   9     2.032067052822   171.85162258     7.35313736
 H     25  11  10     0.979560432874    93.06123688    50.13329268
 H     25  11  10     0.960972044529   121.28417957   161.87947049
 O     15  13  12     1.824871046930   169.92260722   295.98641674
 H     28  15  13     0.982912872067   112.86895834    91.35915028
 H     28  15  13     0.961615090555   119.56778585   218.50493661
 O      9   7   4     3.218050916373   113.44473291   219.85452558
 H     31   9   7     0.969969509040    90.93552683   317.11307832
 H     31   9   7     0.966511344216    86.01424490    59.52232630
 O     17  16   9     1.656759932909   170.96120619    34.84873369
 H     34  17  16     0.981560908384   123.33315384    39.12792647
 H     34  17  16     0.984780856094   129.19298762   231.54669416
 O     33  31   9     2.239863419763   127.62729955   328.42045670
 H     37  33  31     1.004867344763    98.23353580    23.58655429
 H     37  33  31     0.974081283323   150.83357342   163.09993943
 O      6   4   3     1.677013170231   175.13252003   328.07543455
 H     40   6   4     0.979568745334    97.78403459    33.04564703
 H     40   6   4     0.968057923268   113.67770633   143.09513113
 C     37  33  31     1.998013904396    84.20959083   288.74803418
 N     43  37  33     1.158718335467   129.11364224    30.50454362

---------------------------
INTERNAL COORDINATES (A.U.)
---------------------------
 O      0   0   0     0.000000000000     0.00000000     0.00000000
 H      1   0   0     1.830411496916     0.00000000     0.00000000
 H      1   2   0     1.836015595628   105.79672296     0.00000000
 O      3   1   2     6.196042669235   108.34481014   279.32853645
 H      4   3   1     1.838076893635    47.81773627   193.80818823
 H      4   3   1     1.876643428113    64.01140564   341.40814825
 O      4   3   1     5.161240612955   104.85470598   104.69796591
 H      7   4   3     1.859685370439     7.97684275   294.32688561
 H      7   4   3     1.847502748417   114.10693310   294.12454681
 O      9   7   4     5.377522364477   105.43385079   313.69057238
 H     10   9   7     1.832549734761    88.08471156   349.65515282
 H     10   9   7     1.832892901690   111.32658278    98.60217156
 O     12  10   9     3.620288492505   160.61867123    60.59526625
 H     13  12  10     1.815455963985   116.69505120    80.95052120
 H     13  12  10     1.846944943155   113.35226803   315.55721698
 O      9   7   4     5.531605812619   129.95002650    77.37562705
 H     16   9   7     1.875972926726    42.26334147   175.51844586
 H     16   9   7     1.817353664097   132.88205836   111.88173585
 O      5   4   3     3.599644978965   153.48153728   320.87555831
 H     19   5   4     1.869555332906   100.64016767   309.75554149
 H     19   5   4     1.815601693039   129.44842380   186.93241057
 O     20  19   5     3.205603176895   170.36159971     0.65322152
 H     22  20  19     1.832947257308   117.10701558    87.58098929
 H     22  20  19     1.836370739345   102.88289482   334.97896404
 O     11  10   9     3.840050215597   171.85162258     7.35313736
 H     25  11  10     1.851100949758    93.06123688    50.13329268
 H     25  11  10     1.815973986514   121.28417957   161.87947049
 O     15  13  12     3.448506508420   169.92260722   295.98641674
 H     28  15  13     1.857436141712   112.86895834    91.35915028
 H     28  15  13     1.817189167396   119.56778585   218.50493661
 O      9   7   4     6.081234916959   113.44473291   219.85452558
 H     31   9   7     1.832976730340    90.93552683   317.11307832
 H     31   9   7     1.826441745897    86.01424490    59.52232630
 O     17  16   9     3.130822542852   170.96120619    34.84873369
 H     34  17  16     1.854881300609   123.33315384    39.12792647
 H     34  17  16     1.860966119946   129.19298762   231.54669416
 O     33  31   9     4.232728440740   127.62729955   328.42045670
 H     37  33  31     1.898924082524    98.23353580    23.58655429
 H     37  33  31     1.840746857660   150.83357342   163.09993943
 O      6   4   3     3.169095614716   175.13252003   328.07543455
 H     40   6   4     1.851116658031    97.78403459    33.04564703
 H     40   6   4     1.829364356750   113.67770633   143.09513113
 C     37  33  31     3.775699091075    84.20959083   288.74803418
 N     43  37  33     2.189660320386   129.11364224    30.50454362

---------------------
BASIS SET INFORMATION
---------------------
There are 4 groups of distinct atoms

 Group   1 Type O   : 12s7p3d1f contracted to 6s4p3d1f pattern {621111/4111/111/1}
 Group   2 Type H   : 5s2p contracted to 3s2p pattern {311/11}
 Group   3 Type C   : 12s6p3d1f contracted to 6s3p3d1f pattern {621111/411/111/1}
 Group   4 Type N   : 12s6p3d1f contracted to 6s3p3d1f pattern {621111/411/111/1}

Atom   0O    basis set group =>   1
Atom   1H    basis set group =>   2
Atom   2H    basis set group =>   2
Atom   3O    basis set group =>   1
Atom   4H    basis set group =>   2
Atom   5H    basis set group =>   2
Atom   6O    basis set group =>   1
Atom   7H    basis set group =>   2
Atom   8H    basis set group =>   2
Atom   9O    basis set group =>   1
Atom  10H    basis set group =>   2
Atom  11H    basis set group =>   2
Atom  12O    basis set group =>   1
Atom  13H    basis set group =>   2
Atom  14H    basis set group =>   2
Atom  15O    basis set group =>   1
Atom  16H    basis set group =>   2
Atom  17H    basis set group =>   2
Atom  18O    basis set group =>   1
Atom  19H    basis set group =>   2
Atom  20H    basis set group =>   2
Atom  21O    basis set group =>   1
Atom  22H    basis set group =>   2
Atom  23H    basis set group =>   2
Atom  24O    basis set group =>   1
Atom  25H    basis set group =>   2
Atom  26H    basis set group =>   2
Atom  27O    basis set group =>   1
Atom  28H    basis set group =>   2
Atom  29H    basis set group =>   2
Atom  30O    basis set group =>   1
Atom  31H    basis set group =>   2
Atom  32H    basis set group =>   2
Atom  33O    basis set group =>   1
Atom  34H    basis set group =>   2
Atom  35H    basis set group =>   2
Atom  36O    basis set group =>   1
Atom  37H    basis set group =>   2
Atom  38H    basis set group =>   2
Atom  39O    basis set group =>   1
Atom  40H    basis set group =>   2
Atom  41H    basis set group =>   2
Atom  42C    basis set group =>   3
Atom  43N    basis set group =>   4
---------------------------------
AUXILIARY/J BASIS SET INFORMATION
---------------------------------
There are 4 groups of distinct atoms

 Group   1 Type O   : 12s5p4d2f1g contracted to 6s4p3d1f1g pattern {711111/2111/211/2/1}
 Group   2 Type H   : 5s2p1d contracted to 3s1p1d pattern {311/2/1}
 Group   3 Type C   : 12s5p4d2f1g contracted to 6s4p3d1f1g pattern {711111/2111/211/2/1}
 Group   4 Type N   : 12s5p4d2f1g contracted to 6s4p3d1f1g pattern {711111/2111/211/2/1}

Atom   0O    basis set group =>   1
Atom   1H    basis set group =>   2
Atom   2H    basis set group =>   2
Atom   3O    basis set group =>   1
Atom   4H    basis set group =>   2
Atom   5H    basis set group =>   2
Atom   6O    basis set group =>   1
Atom   7H    basis set group =>   2
Atom   8H    basis set group =>   2
Atom   9O    basis set group =>   1
Atom  10H    basis set group =>   2
Atom  11H    basis set group =>   2
Atom  12O    basis set group =>   1
Atom  13H    basis set group =>   2
Atom  14H    basis set group =>   2
Atom  15O    basis set group =>   1
Atom  16H    basis set group =>   2
Atom  17H    basis set group =>   2
Atom  18O    basis set group =>   1
Atom  19H    basis set group =>   2
Atom  20H    basis set group =>   2
Atom  21O    basis set group =>   1
Atom  22H    basis set group =>   2
Atom  23H    basis set group =>   2
Atom  24O    basis set group =>   1
Atom  25H    basis set group =>   2
Atom  26H    basis set group =>   2
Atom  27O    basis set group =>   1
Atom  28H    basis set group =>   2
Atom  29H    basis set group =>   2
Atom  30O    basis set group =>   1
Atom  31H    basis set group =>   2
Atom  32H    basis set group =>   2
Atom  33O    basis set group =>   1
Atom  34H    basis set group =>   2
Atom  35H    basis set group =>   2
Atom  36O    basis set group =>   1
Atom  37H    basis set group =>   2
Atom  38H    basis set group =>   2
Atom  39O    basis set group =>   1
Atom  40H    basis set group =>   2
Atom  41H    basis set group =>   2
Atom  42C    basis set group =>   3
Atom  43N    basis set group =>   4


           ************************************************************
           *        Program running with 32 parallel MPI-processes    *
           *              working on a common directory               *
           ************************************************************
------------------------------------------------------------------------------
                           ORCA GTO INTEGRAL CALCULATION
                           -- RI-GTO INTEGRALS CHOSEN --
------------------------------------------------------------------------------
------------------------------------------------------------------------------
                   ___                                                        
                  /   \      - P O W E R E D   B Y -                         
                 /     \                                                     
                 |  |  |   _    _      __       _____    __    __             
                 |  |  |  | |  | |    /  \     |  _  \  |  |  /  |          
                  \  \/   | |  | |   /    \    | | | |  |  | /  /          
                 / \  \   | |__| |  /  /\  \   | |_| |  |  |/  /          
                |  |  |   |  __  | /  /__\  \  |    /   |      \           
                |  |  |   | |  | | |   __   |  |    \   |  |\   \          
                \     /   | |  | | |  |  |  |  | |\  \  |  | \   \       
                 \___/    |_|  |_| |__|  |__|  |_| \__\ |__|  \__/        
                                                                              
                      - O R C A' S   B I G   F R I E N D -                    
                                      &                                       
                       - I N T E G R A L  F E E D E R -                       
                                                                              
 v1 FN, 2020, v2 2021                                                         
------------------------------------------------------------------------------


Reading SHARK input file m062x_d3.SHARKINP.tmp ... ok
----------------------
SHARK INTEGRAL PACKAGE
----------------------

Number of atoms                             ...     44
Number of basis functions                   ...    886
Number of shells                            ...    362
Maximum angular momentum                    ...      3
Integral batch strategy                     ... SHARK/LIBINT Hybrid
RI-J (if used) integral strategy            ... SPLIT-RIJ (Revised 2003 algorithm where possible)
Printlevel                                  ...      1
Contraction scheme used                     ... SEGMENTED contraction
Coulomb Range Separation                    ... NOT USED
Exchange Range Separation                   ... NOT USED
Finite Nucleus Model                        ... NOT USED
Auxiliary Coulomb fitting basis             ... AVAILABLE
   # of basis functions in Aux-J            ...   1092
   # of shells in Aux-J                     ...    380
   Maximum angular momentum in Aux-J        ...      4
Auxiliary J/K fitting basis                 ... NOT available
Auxiliary Correlation fitting basis         ... NOT available
Auxiliary 'external' fitting basis          ... NOT available
Integral threshold                          ...     2.500000e-11
Primitive cut-off                           ...     2.500000e-12
Primitive pair pre-selection threshold      ...     2.500000e-12

Calculating pre-screening integrals         ... done (  0.1 sec) Dimension = 362
Organizing shell pair data                  ... done (  0.6 sec)
Shell pair information
Total number of shell pairs                 ...     65703
Shell pairs after pre-screening             ...     51163
Total number of primitive shell pairs       ...    158639
Primitive shell pairs kept                  ...     88885
          la=0 lb=0:  12146 shell pairs
          la=1 lb=0:  17331 shell pairs
          la=1 lb=1:   6136 shell pairs
          la=2 lb=0:   6422 shell pairs
          la=2 lb=1:   4662 shell pairs
          la=2 lb=2:    884 shell pairs
          la=3 lb=0:   1735 shell pairs
          la=3 lb=1:   1333 shell pairs
          la=3 lb=2:    460 shell pairs
          la=3 lb=3:     54 shell pairs

Calculating one electron integrals          ... done (  0.1 sec)
Calculating RI/J V-Matrix + Cholesky decomp.... done (  0.3 sec)
Calculating Nuclear repulsion               ... done (  0.0 sec) ENN=   1503.896227799207 Eh

SHARK setup successfully completed in   2.1 seconds

Maximum memory used throughout the entire GTOINT-calculation: 69.2 MB


           ************************************************************
           *        Program running with 32 parallel MPI-processes    *
           *              working on a common directory               *
           ************************************************************
-------------------------------------------------------------------------------
                                 ORCA SCF
-------------------------------------------------------------------------------

------------
SCF SETTINGS
------------
Hamiltonian:
 Density Functional     Method          .... DFT(GTOs)
 Exchange Functional    Exchange        .... M062X
 Correlation Functional Correlation     .... M062X
 Gradients option       PostSCFGGA      .... off
 Hybrid DFT is turned on
   Fraction HF Exchange ScalHFX         ....  0.540000
   Scaling of DF-GGA-X  ScalDFX         ....  0.460000
   Scaling of DF-GGA-C  ScalDFC         ....  1.000000
   Scaling of DF-LDA-C  ScalLDAC        ....  1.000000
   Perturbative correction              ....  0.000000
   Density functional embedding theory  .... OFF
 RI-approximation to the Coulomb term is turned on
   Number of AuxJ basis functions       .... 1092
   RIJ-COSX (HFX calculated with COS-X)).... on


General Settings:
 Integral files         IntName         .... m062x_d3
 Hartree-Fock type      HFTyp           .... UHF
 Total Charge           Charge          ....    0
 Multiplicity           Mult            ....    2
 Number of Electrons    NEL             ....  153
 Basis Dimension        Dim             ....  886
 Nuclear Repulsion      ENuc            ....   1503.8962277992 Eh

Convergence Acceleration:
 DIIS                   CNVDIIS         .... on
   Start iteration      DIISMaxIt       ....     0
   Startup error        DIISStart       ....  0.200000
   # of expansion vecs  DIISMaxEq       ....     5
   Bias factor          DIISBfac        ....   1.050
   Max. coefficient     DIISMaxC        ....  10.000
 Trust-Rad. Augm. Hess. CNVTRAH         .... auto
   Auto Start mean grad. ratio tolernc. ....  1.125000
   Auto Start start iteration           ....    20
   Auto Start num. interpolation iter.  ....    10
   Max. Number of Micro iterations      ....    16
   Max. Number of Macro iterations      .... Maxiter - #DIIS iter
   Number of Davidson start vectors     ....     2
   Converg. threshold I  (grad. norm)   ....   1.000e-05
   Converg. threshold II (energy diff.) ....   1.000e-08
   Grad. Scal. Fac. for Micro threshold ....   0.100
   Minimum threshold for Micro iter.    ....   0.010
   NR start threshold (gradient norm)   ....   0.001
   Initial trust radius                 ....   0.400
   Minimum AH scaling param. (alpha)    ....   1.000
   Maximum AH scaling param. (alpha)    .... 1000.000
   Orbital update algorithm             .... Taylor
   White noise on init. David. guess    .... on
   Maximum white noise                  ....   0.010
   Quad. conv. algorithm                .... NR
 SOSCF                  CNVSOSCF        .... off
 Level Shifting         CNVShift        .... on
   Level shift para.    LevelShift      ....    0.2500
   Turn off err/grad.   ShiftErr        ....    0.0000
 Zerner damping         CNVZerner       .... off
 Static damping         CNVDamp         .... on
   Fraction old density DampFac         ....    0.8500
   Max. Damping (<1)    DampMax         ....    0.9800
   Min. Damping (>=0)   DampMin         ....    0.0000
   Turn off err/grad.   DampErr         ....    0.0300
 Fernandez-Rico         CNVRico         .... off

SCF Procedure:
 Maximum # iterations   MaxIter         ....   500
 SCF integral mode      SCFMode         .... Direct
   Integral package                     .... SHARK and LIBINT hybrid scheme
 Reset frequency        DirectResetFreq ....    20
 Integral Threshold     Thresh          ....  2.500e-11 Eh
 Primitive CutOff       TCut            ....  2.500e-12 Eh

Convergence Tolerance:
 Convergence Check Mode ConvCheckMode   .... Total+1el-Energy
 Convergence forced     ConvForced      .... 0
 Energy Change          TolE            ....  1.000e-08 Eh
 1-El. energy change                    ....  1.000e-05 Eh
 DIIS Error             TolErr          ....  5.000e-07


Diagonalization of the overlap matrix:
Smallest eigenvalue                        ... 1.906e-05
Time for diagonalization                   ...    0.161 sec
Threshold for overlap eigenvalues          ... 1.000e-08
Number of eigenvalues below threshold      ... 0
Time for construction of square roots      ...    0.184 sec
Total time needed                          ...    0.349 sec

Time for model grid setup =    0.522 sec

------------------------------
INITIAL GUESS: MODEL POTENTIAL
------------------------------
Loading Hartree-Fock densities                     ... done
Calculating cut-offs                               ... done
Initializing the effective Hamiltonian             ... done
Setting up the integral package (SHARK)            ... done
Starting the Coulomb interaction                   ... done (   0.3 sec)
Reading the grid                                   ... done
Mapping shells                                     ... done
Starting the XC term evaluation                    ... done (   0.1 sec)
  promolecular density results
     # of electrons  =    152.980865752
     EX              =   -133.955921124
     EC              =     -4.992590875
     EX+EC           =   -138.948511999
Transforming the Hamiltonian                       ... done (   0.1 sec)
Diagonalizing the Hamiltonian                      ... done (   0.2 sec)
Back transforming the eigenvectors                 ... done (   0.0 sec)
Now organizing SCF variables                       ... done
                      ------------------
                      INITIAL GUESS DONE (   1.7 sec)
                      ------------------
-------------------
DFT GRID GENERATION
-------------------

General Integration Accuracy     IntAcc      ... 4.959
Radial Grid Type                 RadialGrid  ... OptM3 with GC (2021)
Angular Grid (max. ang.)         AngularGrid ... 6 (Lebedev-590)
Angular grid pruning method      GridPruning ... 4 (adaptive)
[...]
 24:    140.50   0.000282    1.43  0.000627  ( 0.022828  0.008996 -0.004985)
 25:    145.56   0.000523    2.64  0.001120  (-0.032089 -0.000118 -0.009518)
 26:    150.98   0.000288    1.45  0.000595  (-0.005315  0.023185 -0.005362)
 27:    158.43   0.001257    6.35  0.002476  ( 0.038417 -0.017681 -0.026217)
 28:    160.31   0.000325    1.64  0.000633  (-0.015397 -0.005841  0.019034)
 29:    160.83   0.001541    7.79  0.002991  ( 0.024981 -0.047195 -0.011796)
 30:    175.76   0.001505    7.61  0.002672  ( 0.029675  0.041724  0.007103)
 31:    176.80   0.001400    7.08  0.002471  (-0.048272 -0.004968  0.010798)
 32:    189.52   0.001285    6.49  0.002116  (-0.003960 -0.042682  0.016686)
 33:    194.61   0.000728    3.68  0.001168  ( 0.027243 -0.017969  0.010152)
 34:    204.49   0.001646    8.32  0.002512  (-0.040286 -0.023406 -0.018478)
 35:    218.28   0.004162   21.03  0.005950  (-0.041492 -0.058464  0.028459)
 36:    221.90   0.013615   68.80  0.019147  (-0.013073 -0.078402  0.113266)
 37:    230.65   0.012611   63.73  0.017063  ( 0.129873  0.013076  0.005026)
 38:    235.34   0.002161   10.92  0.002865  (-0.024235  0.045154 -0.015459)
 39:    238.45   0.008366   42.28  0.010948  (-0.052290 -0.079804 -0.042957)
 40:    243.42   0.007477   37.78  0.009585  (-0.076392  0.019424 -0.058069)
 41:    253.14   0.005054   25.54  0.006230  ( 0.063497 -0.024313  0.040094)
 42:    256.94   0.005580   28.20  0.006777  (-0.055433 -0.051674 -0.032158)
 43:    265.46   0.004572   23.10  0.005374  ( 0.050251  0.015760  0.050998)
 44:    272.46   0.003775   19.08  0.004323  ( 0.055828 -0.016267  0.030691)
 45:    281.72   0.007936   40.10  0.008790  (-0.038166  0.055493  0.065225)
 46:    291.32   0.015192   76.77  0.016274  ( 0.088429 -0.064714 -0.065314)
 47:    292.71   0.005528   27.94  0.005894  (-0.022187  0.068526 -0.026568)
 48:    302.63   0.004100   20.72  0.004227  (-0.059023  0.024900 -0.011123)
 49:    326.14   0.004741   23.96  0.004536  ( 0.029324 -0.007501 -0.060165)
 50:    329.48   0.003099   15.66  0.002935  (-0.028808  0.026080  0.037751)
 51:    335.96   0.004035   20.39  0.003748  ( 0.011571 -0.020218 -0.056615)
 52:    384.31   0.003547   17.93  0.002880  (-0.053520  0.001825 -0.003567)
 53:    395.84   0.008326   42.08  0.006564  (-0.009826  0.080226 -0.005589)
 54:    407.22   0.005314   26.85  0.004072  (-0.042274 -0.047407 -0.006143)
 55:    415.70   0.002150   10.87  0.001614  ( 0.037081  0.005741 -0.014359)
 56:    439.74   0.011403   57.63  0.008092  ( 0.041429 -0.008127  0.079436)
 57:    442.64   0.003527   17.82  0.002486  (-0.020472 -0.012983  0.043576)
 58:    458.38   0.000537    2.71  0.000365  ( 0.001655  0.000095 -0.019042)
 59:    473.02   0.004849   24.50  0.003199  ( 0.010067 -0.015788  0.053369)
 60:    498.38   0.001640    8.29  0.001027  ( 0.007535 -0.030792  0.004665)
 61:    502.76   0.002337   11.81  0.001451  (-0.018111  0.003412 -0.033334)
 62:    524.71   0.013108   66.24  0.007796  ( 0.018789 -0.082714 -0.024518)
 63:    534.49   0.019081   96.43  0.011141  (-0.087272  0.000560 -0.059364)
 64:    549.17   0.003423   17.30  0.001945  (-0.006884 -0.010396  0.042305)
 65:    565.06   0.023515  118.83  0.012986  ( 0.100804  0.034702  0.040258)
 66:    584.25   0.009182   46.40  0.004904  ( 0.038427 -0.058345  0.004836)
 67:    592.99   0.046505  235.02  0.024474  ( 0.145419 -0.057577  0.003452)
 68:    608.53   0.012253   61.92  0.006283  ( 0.071707  0.032008  0.010821)
 69:    625.32   0.040370  204.02  0.020147  (-0.017792 -0.081119  0.115108)
 70:    642.65   0.013938   70.43  0.006768  ( 0.031445 -0.064778  0.039785)
 71:    661.31   0.020429  103.24  0.009640  ( 0.096225  0.001581  0.019449)
 72:    664.90   0.116533  588.91  0.054693  (-0.023649 -0.113612  0.203043)
 73:    676.25   0.015038   76.00  0.006939  (-0.057732 -0.028266 -0.052986)
 74:    684.81   0.004118   20.81  0.001877  (-0.005571 -0.038662  0.018733)
 75:    697.63   0.006468   32.68  0.002893  ( 0.038890  0.034089 -0.014786)
 76:    703.95   0.041955  212.02  0.018599  (-0.011148  0.135914  0.001326)
 77:    728.11   0.033757  170.59  0.014468  ( 0.027200  0.048313  0.106742)
 78:    765.90   0.018456   93.27  0.007520  (-0.035974  0.041228  0.067274)
 79:    783.58   0.024971  126.19  0.009945  (-0.096515 -0.021169 -0.013477)
 80:    791.37   0.002463   12.45  0.000971  ( 0.028480 -0.004947  0.011649)
 81:    823.40   0.010544   53.29  0.003996  (-0.052075  0.034081  0.011090)
 82:    848.63   0.014983   75.72  0.005510  (-0.002482  0.065317  0.035175)
 83:    879.77   0.069115  349.28  0.024516  ( 0.105231 -0.102152 -0.054837)
 84:    906.96   0.029459  148.87  0.010136  ( 0.048893 -0.036269  0.080189)
 85:    934.75   0.023690  119.72  0.007909  (-0.068407 -0.044365  0.035510)
 86:    936.58   0.029491  149.04  0.009826  ( 0.063383  0.068564  0.033286)
 87:   1001.75   0.001787    9.03  0.000557  (-0.022817  0.001589  0.005797)
 88:   1077.09   0.009809   49.57  0.002842  (-0.028139 -0.031082  0.032927)
 89:   1617.07   0.025158  127.14  0.004855  ( 0.045895  0.028274  0.044149)
 90:   1632.21   0.001375    6.95  0.000263  (-0.015080 -0.004786  0.003548)
 91:   1634.10   0.028279  142.91  0.005401  ( 0.035721 -0.054398 -0.034137)
 92:   1635.95   0.016568   83.73  0.003160  ( 0.020818  0.037203 -0.036645)
 93:   1646.45   0.001382    6.98  0.000262  (-0.013848 -0.000348  0.008369)
 94:   1652.67   0.031931  161.36  0.006029  (-0.024560  0.062349  0.039227)
 95:   1658.52   0.002432   12.29  0.000458  ( 0.019238  0.005614 -0.007478)
 96:   1666.10   0.012131   61.31  0.002272  (-0.021375 -0.032482 -0.027572)
 97:   1668.91   0.018115   91.55  0.003387  ( 0.043709 -0.003526  0.038267)
 98:   1673.14   0.012101   61.15  0.002257  ( 0.036177  0.008138  0.029699)
 99:   1689.14   0.016351   82.63  0.003021  ( 0.011070 -0.051693  0.015036)
100:   1692.19   0.014838   74.98  0.002736  (-0.004940  0.001561  0.052052)
101:   1700.23   0.007442   37.61  0.001366  ( 0.032889 -0.013428  0.010195)
102:   1720.55   0.004615   23.32  0.000837  ( 0.016300 -0.003088  0.023704)
103:   2197.66   0.011625   58.75  0.001651  (-0.039194  0.009033  0.005741)
104:   3031.01   0.371415  1876.98  0.038240  ( 0.156922 -0.090832  0.073245)
105:   3216.32   0.147466  745.23  0.014308  ( 0.113804  0.014549 -0.033838)
106:   3240.91   0.352560  1781.69  0.033948  ( 0.132426 -0.098864  0.081465)
107:   3315.16   0.124445  628.90  0.011714  ( 0.058293  0.073298  0.054256)
108:   3428.11   0.082744  418.15  0.007532  (-0.064303  0.004450 -0.058117)
109:   3451.71   0.036464  184.27  0.003297  (-0.038818  0.042264  0.001886)
110:   3461.31   0.039900  201.64  0.003597  (-0.019406 -0.053790  0.018091)
111:   3477.45   0.409203  2067.95  0.036722  ( 0.163346  0.100139  0.003427)
112:   3547.09   0.058654  296.41  0.005160  ( 0.050935 -0.008073  0.050007)
113:   3556.59   0.085806  433.63  0.007529  ( 0.009343 -0.052031  0.068807)
114:   3587.99   0.186500  942.50  0.016221  ( 0.018796 -0.098870  0.078053)
115:   3592.22   0.137333  694.02  0.011930  (-0.018868 -0.049091 -0.095731)
116:   3685.66   0.043095  217.79  0.003649  (-0.024422  0.044768 -0.032377)
117:   3701.16   0.012415   62.74  0.001047  (-0.016445  0.002717 -0.027729)
118:   3710.86   0.019591   99.01  0.001648  (-0.030259  0.014483  0.022851)
119:   3716.08   0.125780  635.64  0.010563  ( 0.045257  0.062780 -0.067624)
120:   3720.46   0.110558  558.71  0.009273  ( 0.084707  0.034957  0.029600)
121:   3770.01   0.006517   32.94  0.000539  (-0.014674 -0.001310 -0.017956)
122:   3771.87   0.132803  671.13  0.010987  (-0.068704  0.079165 -0.000337)
123:   3780.18   0.027957  141.28  0.002308  ( 0.028658 -0.027260 -0.027267)
124:   3787.32   0.040097  202.64  0.003304  (-0.011230  0.030590  0.047350)
125:   3797.69   0.198061  1000.92  0.016275  ( 0.047127 -0.063399 -0.100174)
126:   3849.28   0.016090   81.31  0.001304  (-0.018640 -0.028744  0.011435)
127:   3905.74   0.011499   58.11  0.000919  ( 0.024820  0.017357  0.001208)
128:   3908.61   0.025411  128.42  0.002029  (-0.021561  0.038927 -0.006972)
129:   3913.27   0.019489   98.49  0.001554  (-0.006973 -0.034916  0.016923)
130:   3914.95   0.017313   87.50  0.001380  (-0.004387 -0.010276 -0.035429)
131:   3919.17   0.021235  107.31  0.001691  (-0.023553 -0.011016  0.031856)

* The epsilon (eps) is given for a Dirac delta lineshape.
** The dipole moment derivative (T) already includes vibrational overlap.

The first frequency considered to be a vibration is 6
The total number of vibrations considered is 126


--------------------------
THERMOCHEMISTRY AT 298.15K
--------------------------

Temperature         ... 298.15 K
Pressure            ... 1.00 atm
Total Mass          ... 278.23 AMU

Throughout the following assumptions are being made:
  (1) The electronic state is orbitally nondegenerate
      but the spin degeneracy is treated
  (2) There are no thermally accessible electronically excited states
  (3) Hindered rotations indicated by low frequency modes are not
      treated as such but are treated as vibrations and this may
      cause some error
  (4) All equations used are the standard statistical mechanics
      equations for an ideal gas
  (5) All vibrations are strictly harmonic

freq.      10.82  E(vib)   ...       0.58 
freq.      31.29  E(vib)   ...       0.55 
freq.      42.42  E(vib)   ...       0.53 
freq.      45.54  E(vib)   ...       0.53 
freq.      50.20  E(vib)   ...       0.52 
freq.      51.70  E(vib)   ...       0.52 
freq.      55.58  E(vib)   ...       0.52 
freq.      55.98  E(vib)   ...       0.52 
freq.      57.30  E(vib)   ...       0.51 
freq.      61.85  E(vib)   ...       0.51 
freq.      66.39  E(vib)   ...       0.50 
freq.      69.60  E(vib)   ...       0.50 
freq.      76.56  E(vib)   ...       0.49 
freq.      84.45  E(vib)   ...       0.48 
freq.      88.19  E(vib)   ...       0.48 
freq.     105.64  E(vib)   ...       0.45 
freq.     120.18  E(vib)   ...       0.44 
freq.     128.96  E(vib)   ...       0.43 
freq.     140.50  E(vib)   ...       0.41 
freq.     145.56  E(vib)   ...       0.41 
freq.     150.98  E(vib)   ...       0.40 
freq.     158.43  E(vib)   ...       0.39 
freq.     160.31  E(vib)   ...       0.39 
freq.     160.83  E(vib)   ...       0.39 
freq.     175.76  E(vib)   ...       0.38 
freq.     176.80  E(vib)   ...       0.38 
freq.     189.52  E(vib)   ...       0.36 
freq.     194.61  E(vib)   ...       0.36 
freq.     204.49  E(vib)   ...       0.35 
freq.     218.28  E(vib)   ...       0.33 
freq.     221.90  E(vib)   ...       0.33 
freq.     230.65  E(vib)   ...       0.32 
freq.     235.34  E(vib)   ...       0.32 
freq.     238.45  E(vib)   ...       0.32 
freq.     243.42  E(vib)   ...       0.31 
freq.     253.14  E(vib)   ...       0.30 
freq.     256.94  E(vib)   ...       0.30 
freq.     265.46  E(vib)   ...       0.29 
freq.     272.46  E(vib)   ...       0.29 
freq.     281.72  E(vib)   ...       0.28 
freq.     291.32  E(vib)   ...       0.27 
freq.     292.71  E(vib)   ...       0.27 
freq.     302.63  E(vib)   ...       0.26 
freq.     326.14  E(vib)   ...       0.24 
freq.     329.48  E(vib)   ...       0.24 
freq.     335.96  E(vib)   ...       0.24 
freq.     384.31  E(vib)   ...       0.20 
freq.     395.84  E(vib)   ...       0.20 
freq.     407.22  E(vib)   ...       0.19 
freq.     415.70  E(vib)   ...       0.18 
freq.     439.74  E(vib)   ...       0.17 
freq.     442.64  E(vib)   ...       0.17 
freq.     458.38  E(vib)   ...       0.16 
freq.     473.02  E(vib)   ...       0.15 
freq.     498.38  E(vib)   ...       0.14 
freq.     502.76  E(vib)   ...       0.14 
freq.     524.71  E(vib)   ...       0.13 
freq.     534.49  E(vib)   ...       0.13 
freq.     549.17  E(vib)   ...       0.12 
freq.     565.06  E(vib)   ...       0.11 
freq.     584.25  E(vib)   ...       0.11 
freq.     592.99  E(vib)   ...       0.10 
freq.     608.53  E(vib)   ...       0.10 
freq.     625.32  E(vib)   ...       0.09 
freq.     642.65  E(vib)   ...       0.09 
freq.     661.31  E(vib)   ...       0.08 
freq.     664.90  E(vib)   ...       0.08 
freq.     676.25  E(vib)   ...       0.08 
freq.     684.81  E(vib)   ...       0.07 
freq.     697.63  E(vib)   ...       0.07 
freq.     703.95  E(vib)   ...       0.07 
freq.     728.11  E(vib)   ...       0.06 
freq.     765.90  E(vib)   ...       0.06 
freq.     783.58  E(vib)   ...       0.05 
freq.     791.37  E(vib)   ...       0.05 
freq.     823.40  E(vib)   ...       0.05 
freq.     848.63  E(vib)   ...       0.04 
freq.     879.77  E(vib)   ...       0.04 
freq.     906.96  E(vib)   ...       0.03 
freq.     934.75  E(vib)   ...       0.03 
freq.     936.58  E(vib)   ...       0.03 
freq.    1001.75  E(vib)   ...       0.02 
freq.    1077.09  E(vib)   ...       0.02 
freq.    1617.07  E(vib)   ...       0.00 
freq.    1632.21  E(vib)   ...       0.00 
freq.    1634.10  E(vib)   ...       0.00 
freq.    1635.95  E(vib)   ...       0.00 
freq.    1646.45  E(vib)   ...       0.00 
freq.    1652.67  E(vib)   ...       0.00 
freq.    1658.52  E(vib)   ...       0.00 
freq.    1666.10  E(vib)   ...       0.00 
freq.    1668.91  E(vib)   ...       0.00 
freq.    1673.14  E(vib)   ...       0.00 
freq.    1689.14  E(vib)   ...       0.00 
freq.    1692.19  E(vib)   ...       0.00 
freq.    1700.23  E(vib)   ...       0.00 
freq.    1720.55  E(vib)   ...       0.00 
freq.    2197.66  E(vib)   ...       0.00 
freq.    3031.01  E(vib)   ...       0.00 
freq.    3216.32  E(vib)   ...       0.00 
freq.    3240.91  E(vib)   ...       0.00 
freq.    3315.16  E(vib)   ...       0.00 
freq.    3428.11  E(vib)   ...       0.00 
freq.    3451.71  E(vib)   ...       0.00 
freq.    3461.31  E(vib)   ...       0.00 
freq.    3477.45  E(vib)   ...       0.00 
freq.    3547.09  E(vib)   ...       0.00 
freq.    3556.59  E(vib)   ...       0.00 
freq.    3587.99  E(vib)   ...       0.00 
freq.    3592.22  E(vib)   ...       0.00 
freq.    3685.66  E(vib)   ...       0.00 
freq.    3701.16  E(vib)   ...       0.00 
freq.    3710.86  E(vib)   ...       0.00 
freq.    3716.08  E(vib)   ...       0.00 
freq.    3720.46  E(vib)   ...       0.00 
freq.    3770.01  E(vib)   ...       0.00 
freq.    3771.87  E(vib)   ...       0.00 
freq.    3780.18  E(vib)   ...       0.00 
freq.    3787.32  E(vib)   ...       0.00 
freq.    3797.69  E(vib)   ...       0.00 
freq.    3849.28  E(vib)   ...       0.00 
freq.    3905.74  E(vib)   ...       0.00 
freq.    3908.61  E(vib)   ...       0.00 
freq.    3913.27  E(vib)   ...       0.00 
freq.    3914.95  E(vib)   ...       0.00 
freq.    3919.17  E(vib)   ...       0.00 

------------
INNER ENERGY
------------

The inner energy is: U= E(el) + E(ZPE) + E(vib) + E(rot) + E(trans)
    E(el)   - is the total energy from the electronic structure calculation
              = E(kin-el) + E(nuc-el) + E(el-el) + E(nuc-nuc)
    E(ZPE)  - the the zero temperature vibrational energy from the frequency calculation
    E(vib)  - the the finite temperature correction to E(ZPE) due to population
              of excited vibrational states
    E(rot)  - is the rotational thermal energy
    E(trans)- is the translational thermal energy

Summary of contributions to the inner energy U:
Electronic energy                ...  -1162.95817677 Eh
Zero point energy                ...      0.36248240 Eh     227.46 kcal/mol
Thermal vibrational correction   ...      0.03478826 Eh      21.83 kcal/mol
Thermal rotational correction    ...      0.00141627 Eh       0.89 kcal/mol
Thermal translational correction ...      0.00141627 Eh       0.89 kcal/mol
-----------------------------------------------------------------------
Total thermal energy                  -1162.55807357 Eh


Summary of corrections to the electronic energy:
(perhaps to be used in another calculation)
Total thermal correction                  0.03762080 Eh      23.61 kcal/mol
Non-thermal (ZPE) correction              0.36248240 Eh     227.46 kcal/mol
-----------------------------------------------------------------------
Total correction                          0.40010320 Eh     251.07 kcal/mol


--------
ENTHALPY
--------

The enthalpy is H = U + kB*T
                kB is Boltzmann's constant
Total free energy                 ...  -1162.55807357 Eh 
Thermal Enthalpy correction       ...      0.00094421 Eh       0.59 kcal/mol
-----------------------------------------------------------------------
Total Enthalpy                    ...  -1162.55712936 Eh


Note: Only C1 symmetry has been detected, increase convergence thresholds 
      if your molecule has a higher symmetry. Symmetry factor of 1.0 is   
      used for the rotational entropy correction. 
 

Note: Rotational entropy computed according to Herzberg 
Infrared and Raman Spectra, Chapter V,1, Van Nostrand Reinhold, 1945 
Point Group:  C1, Symmetry Number:   1  
Rotational constants in cm-1:     0.011951     0.006353     0.006206 

Vibrational entropy computed according to the QRRHO of S. Grimme
Chem.Eur.J. 2012 18 9955


-------
ENTROPY
-------

The entropy contributions are T*S = T*(S(el)+S(vib)+S(rot)+S(trans))
     S(el)   - electronic entropy
     S(vib)  - vibrational entropy
     S(rot)  - rotational entropy
     S(trans)- translational entropy
The entropies will be listed as multiplied by the temperature to get
units of energy

Electronic entropy                ...      0.00065446 Eh      0.41 kcal/mol
Vibrational entropy               ...      0.06395641 Eh     40.13 kcal/mol
Rotational entropy                ...      0.01638819 Eh     10.28 kcal/mol
Translational entropy             ...      0.02032047 Eh     12.75 kcal/mol
-----------------------------------------------------------------------
Final entropy term                ...      0.10131953 Eh     63.58 kcal/mol

In case the symmetry of your molecule has not been determined correctly
or in case you have a reason to use a different symmetry number we print 
out the resulting rotational entropy values for sn=1,12 :
 --------------------------------------------------------
|  sn= 1 | S(rot)=       0.01638819 Eh     10.28 kcal/mol|
|  sn= 2 | S(rot)=       0.01573374 Eh      9.87 kcal/mol|
|  sn= 3 | S(rot)=       0.01535090 Eh      9.63 kcal/mol|
|  sn= 4 | S(rot)=       0.01507928 Eh      9.46 kcal/mol|
|  sn= 5 | S(rot)=       0.01486859 Eh      9.33 kcal/mol|
|  sn= 6 | S(rot)=       0.01469645 Eh      9.22 kcal/mol|
|  sn= 7 | S(rot)=       0.01455090 Eh      9.13 kcal/mol|
|  sn= 8 | S(rot)=       0.01442482 Eh      9.05 kcal/mol|
|  sn= 9 | S(rot)=       0.01431362 Eh      8.98 kcal/mol|
|  sn=10 | S(rot)=       0.01421414 Eh      8.92 kcal/mol|
|  sn=11 | S(rot)=       0.01412415 Eh      8.86 kcal/mol|
|  sn=12 | S(rot)=       0.01404199 Eh      8.81 kcal/mol|
 --------------------------------------------------------


-------------------
GIBBS FREE ENERGY
-------------------

The Gibbs free energy is G = H - T*S

Total enthalpy                    ...  -1162.55712936 Eh 
Total entropy correction          ...     -0.10131953 Eh    -63.58 kcal/mol
-----------------------------------------------------------------------
Final Gibbs free energy         ...  -1162.65844889 Eh

For completeness - the Gibbs free energy minus the electronic energy
G-E(el)                           ...      0.29972788 Eh    188.08 kcal/mol



Timings for individual modules:

Sum of individual times         ...    86263.002 sec (=1437.717 min)
GTO integral calculation        ...      362.517 sec (=   6.042 min)   0.4 %
SCF iterations                  ...    11497.182 sec (= 191.620 min)  13.3 %
SCF Gradient evaluation         ...     2256.884 sec (=  37.615 min)   2.6 %
Geometry relaxation             ...       23.457 sec (=   0.391 min)   0.0 %
Numerical frequency calculation ...    72122.961 sec (=1202.049 min)  83.6 %
                             ****ORCA TERMINATED NORMALLY****
TOTAL RUN TIME: 0 days 23 hours 46 minutes 5 seconds 467 msec
