
                                 *****************
                                 * O   R   C   A *
                                 *****************

                                            #,                                       
                                            ###                                      
                                            ####                                     
                                            #####                                    
                                            ######                                   
                                           ########,                                 
                                     ,,################,,,,,                         
                               ,,#################################,,                 
                          ,,##########################################,,             
                       ,#########################################, ''#####,          
                    ,#############################################,,   '####,        
                  ,##################################################,,,,####,       
                ,###########''''           ''''###############################       
              ,#####''   ,,,,##########,,,,          '''####'''          '####       
            ,##' ,,,,###########################,,,                        '##       
           ' ,,###''''                  '''############,,,                           
         ,,##''                                '''############,,,,        ,,,,,,###''
      ,#''                                            '''#######################'''  
     '                                                          ''''####''''         
             ,#######,   #######,   ,#######,      ##                                
            ,#'     '#,  ##    ##  ,#'     '#,    #''#        ,####,   ,####,        
            ##       ##  ##   ,#'  ##            #'  '#       #'       #'  '#        
            ##       ##  #######   ##           ,######,      #####,   #    #        
            '#,     ,#'  ##    ##  '#,     ,#' ,#      #,     #,   #   #,  ,#        
             '#######'   ##     ##  '#######'  #'      '#     '####' # '####'        



                #########################################################
                #                        -***-                          #
                #          Department of theory and spectroscopy        #
                #                                                       #
                #                      Frank Neese                      #
                #                                                       #
                #     Directorship, Architecture, Infrastructure        #
                #                    SHARK, DRIVERS                     #
                #        Core code/Algorithms in most modules           #
                #                                                       #
                #        Max Planck Institute fuer Kohlenforschung      #
                #                Kaiser Wilhelm Platz 1                 #
                #                 D-45470 Muelheim/Ruhr                 #
                #                      Germany                          #
                #                                                       #
                #                  All rights reserved                  #
                #                        -***-                          #
                #########################################################


                         Program Version 6.0.1  -  RELEASE   -


 With contributions from (in alphabetic order):
[Max-Planck-Institut fuer Kohlenforschung]                               
  Daniel Aravena         : Magnetic Suceptibility                        
  Michael Atanasov       : Ab Initio Ligand Field Theory (pilot matlab implementation)
  Alexander A. Auer      : GIAO ZORA, VPT2 properties, NMR spectrum      
  Ute Becker             : All parallelization in ORCA, NUMFREQ, NUMCALC 
  Giovanni Bistoni       : ED, misc. LED, open-shell LED, HFLD           
  Martin Brehm           : Molecular dynamics                            
  Dmytro Bykov           : pre 5.0 version of the SCF Hessian            
  Marcos Casanova-Páez   : Triplet and SCS-CIS(D). UHF-(DLPNO)-IP/EA/STEOM-CCSD. UHF-CVS-IP/STEOM-CCSD   
  Vijay G. Chilkuri      : MRCI spin determinant printing, contributions to CSF-ICE 
  Pauline Colinet        : FMM embedding                                 
  Dipayan Datta          : RHF DLPNO-CCSD density                        
  Achintya Kumar Dutta   : EOM-CC, STEOM-CC                              
  Nicolas Foglia         : Exact transition moments, OPA infrastructure, MCD improvements    
  Dmitry Ganyushin       : Spin-Orbit,Spin-Spin,Magnetic field MRCI      
  Miquel Garcia-Rates    : C-PCM and meta-GGA Hessian, CCSD/C-PCM, Gaussian charge scheme 
  Tiago L. C. Gouveia    : GS-ROHF, GS-ROCIS                             
  Yang Guo               : DLPNO-NEVPT2, F12-NEVPT2, CIM, IAO-localization        
  Andreas Hansen         : Spin unrestricted coupled pair/coupled cluster methods 
  Ingolf Harden          : AUTO-CI MPn and infrastructure                
  Benjamin Helmich-Paris : MC-RPA, TRAH-(SCF,CASSCF), AVAS, COSX integrals, SCF dyn. polar. 
  Lee Huntington         : MR-EOM, pCC                                   
  Robert Izsak           : Overlap fitted RIJCOSX, COSX-SCS-MP3, EOM     
  Riya Kayal             : Wick's Theorem for AUTO-CI, AUTO-CI UHF-CCSDT 
  Emily Kempfer          : AUTO-CI, RHF CISDT and CCSDT                  
  Christian Kollmar      : KDIIS, OOCD, Brueckner-CCSD(T), CCSD density, CASPT2, CASPT2-K, improved NEVPT2 
  Axel Koslowski         : Symmetry handling                             
  Simone Kossmann        : meta-GGA functionals, TD-DFT gradient, OOMP2, (MP2 Hessian; deprecated post 5.0) 
  Lucas Lang             : DCDCAS                                        
  Marvin Lechner         : AUTO-CI (C++ implementation), FIC-MRCC        
  Spencer Leger          : CASSCF response                               
  Dagmar Lenk            : GEPOL surface, SMD, ORCA-2-JSON               
  Dimitrios Liakos       : Extrapolation schemes; Compound Job, initial MDCI parallelization 
  Dimitrios Manganas     : Further ROCIS development; embedding schemes. LFT, Crystal Embedding 
  Dimitrios Pantazis     : SARC Basis sets                               
  Anastasios Papadopoulos: AUTO-CI, single reference methods and gradients 
  Taras Petrenko         : pre 6.0 DFT Hessian and TD-DFT gradient, (ASA, deprecated), ECA, 1-Electron XAS/XES, NRVS 
  Peter Pinski           : DLPNO-MP2, DLPNO-MP2 Gradient                 
  Christoph Reimann      : Effective Core Potentials                     
  Marius Retegan         : Local ZFS, SOC                                
  Christoph Riplinger    : Optimizer, TS searches, QM/MM, DLPNO-CCSD(T), (RO)-DLPNO pert. Triples 
  Michael Roemelt        : Original ROCIS implementation                 
  Masaaki Saitow         : Open-shell DLPNO-CCSD energy and density      
  Barbara Sandhoefer     : DKH picture change effects                    
  Kantharuban Sivalingam : CASSCF convergence/infrastructure, NEVPT2 and variants, FIC-MRCI 
  Bernardo de Souza      : ESD, SOC TD-DFT                               
  Georgi L. Stoychev     : AutoAux, RI-MP2 NMR, DLPNO-MP2 response, X2C  
  Van Anh Tran           : RI-MP2 g-tensors                              
  Willem Van den Heuvel  : Paramagnetic NMR                              
  Zikuan Wang            : NOTCH, Electric field optimization            
  Frank Wennmohs         : Technical directorship and infrastructure     
  Hang Xu                : AUTO-CI-Response properties                   
                                                                         
[FACCTs GmbH]                                                            
  Markus Bursch, Miquel Garcia-Rates, Christoph Riplinger, Bernardo de Souza, Georgi L. Stoychev 
                                                                 
  APM, Basis sets (HGBS, AHGBS, def-TZVP (Ac-Lr), def2-XVPD (La-Lu)), CI-OPT, improved COSX, DLPNO-Multilevel,           
  DOCKER, DRACO, updates on ESD, GOAT, IRC, LR-CPCM, MBIS, meta-GGA TD-DFT gradient, ML-optimized integration grids, 
  MM, NACMEs, nearIR, NEB, NEB-TS, NL-DFT gradient (VV10), 2- and 3-layer-ONIOM, interface openCOSMO-RS, QMMM,   
  Crystal-QMMM, SF, symmetry and pop. for TD-DFT, r2SCAN hybrids, SOLVATOR                                   
                                                                         
[Other institutions]                                                     
  V. Asgeirsson          : NEB                                           
  Christoph Bannwarth    : sTDA-DFT, sTD-DFT, PBEh-3c, B97-3c, D3        
  Sebastian Ehlert       : rSCAN, r2SCAN, r2SCAN-3c, D4, dhf basis sets  
  Marvin Friede          : D4 for Fr, Ra, Ac-Lr                          
  Lars Goerigk           : TD-DFT with DH, B97 family of functionals     
  Stefan Grimme          : VdW corrections, initial TS optimization, DFT functionals, gCP, sTDA/sTD-DF 
  Waldemar Hujo          : DFT-NL                                        
  H. Jonsson             : NEB                                           
  Holger Kruse           : gCP                                           
  Marcel Mueller         : wB97X-3c, vDZP basis set                      
  Hagen Neugebauer       : wr2SCAN                                       
  Tobias Risthaus        : range-separated hybrid DFT                    
  Lukas Wittmann         : regularized MP2, r2SCAN double-hybrids, wr2SCAN        
                                                                         
We gratefully acknowledge several colleagues who have allowed us to      
interface, adapt or use parts of their codes:                            
  Ed Valeev, F. Pavosevic, A. Kumar             : LibInt (2-el integral package), F12 methods 
  Garnet Chan, S. Sharma, J. Yang, R. Olivares  : DMRG                   
  Ulf Ekstrom                                   : XCFun DFT Library      
  Mihaly Kallay                                 : mrcc  (arbitrary order and MRCC methods)
  Frank Weinhold                                : gennbo (NPA and NBO analysis)           
  Simon Mueller                                 : openCOSMO-RS                            
  Christopher J. Cramer and Donald G. Truhlar   : smd solvation model                     
  S Lehtola, MJT Oliveira, MAL Marques          : LibXC Library                           
  Liviu Ungur et al                             : ANISO software                          


 Your calculation uses the libint2 library for the computation of 2-el integrals
 For citations please refer to: http://libint.valeyev.net

 Your ORCA version has been built with support for libXC version: 6.2.2
 For citations please refer to: https://libxc.gitlab.io

 This ORCA versions uses:
   CBLAS   interface :  Fast vector & matrix operations
   LAPACKE interface :  Fast linear algebra routines
   SCALAPACK package :  Parallel linear algebra routines
   Shared memory     :  Shared parallel matrices
   BLAS/LAPACK       :  OpenBLAS 0.3.27  USE64BITINT DYNAMIC_ARCH NO_AFFINITY Haswell SINGLE_THREADED
        Core in use  :  Haswell
   Copyright (c) 2011-2014, The OpenBLAS Project


Warning: RI is on but no J-basis has been assigned. Assigning Def2/J (nothing to worry about!)
================================================================================

----- Orbital basis set information -----
Your calculation utilizes the basis: cc-pVTZ 
       H, B-Ne : Obtained from the ccRepo (grant-hill.group.shef.ac.uk/ccrepo) Feb. 2017
                 T. H. Dunning, Jr., J. Chem. Phys. 90, 1007 (1989)
            He : Obtained from the ccRepo (grant-hill.group.shef.ac.uk/ccrepo) Feb. 2017
                 D. E. Woon, T. H. Dunning, Jr., J. Chem. Phys. 100, 2975 (1994)
  Li-Be, Na-Mg : Obtained from the ccRepo (grant-hill.group.shef.ac.uk/ccrepo) Feb. 2017
                 B. P. Prascher, D. E. Woon, K. A. Peterson, T. H. Dunning, Jr., A. K. Wilson, Theor. Chem. Acc. 128, 69 (2011)
         Al-Ar : Obtained from the ccRepo (grant-hill.group.shef.ac.uk/ccrepo) Feb. 2017
                 D. E. Woon, T. H. Dunning, Jr., J. Chem. Phys. 98, 1358 (1993)
            Ca : Obtained from the Peterson Research Group Website (tyr0.chem.wsu.edu/~kipeters) Feb. 2017
                 J. Koput, K. A. Peterson, J. Phys. Chem. 106, 9595 (2002)
         Sc-Zn : Obtained from the ccRepo (grant-hill.group.shef.ac.uk/ccrepo) Feb. 2017
                 N. B. Balabanov, K. A. Peterson, J. Chem. Phys. 123, 064107 (2005)
                 N. B. Balabanov, K. A. Peterson, J. Chem. Phys. 125, 074110 (2006)
         Ga-Kr : Obtained from the ccRepo (grant-hill.group.shef.ac.uk/ccrepo) Feb. 2017
                 A. K. Wilson, D. E. Woon, K. A. Peterson, T. H. Dunning, Jr., J. Chem. Phys. 110, 7667 (1999)
             Y : Obtained from the ccRepo (grant-hill.group.shef.ac.uk/ccrepo) Feb. 2017
                 K. A. Peterson, D. Figgen, M. Dolg, H. Stoll, J. Chem. Phys. 126, 124101 (2007)
        Ag, Au : Obtained from the Peterson Research Group Website (tyr0.chem.wsu.edu/~kipeters) Feb. 2017
                 K. A. Peterson, C. Puzzarini, Theor. Chem. Acc. 114, 283 (2005)

----- AuxJ basis set information -----
Your calculation utilizes the auxiliary basis: def2/J
   F. Weigend, Phys. Chem. Chem. Phys. 8, 1057 (2006).

================================================================================
                                        WARNINGS
                       Please study these warnings very carefully!
================================================================================

WARNING: Old DensityContainer found on disk!
         Will remove this file - 
         If you want to keep old densities, please start your calculation with a different basename. 


WARNING: Geometry Optimization
  ===> : Switching off AutoStart
         For restart on a previous wavefunction, please use MOREAD

================================================================================
                                       INPUT FILE
================================================================================
NAME = CH3OH.inp
|  1> # ORCA input file
|  2> # Geometry optimization
|  3> ! BHANDHLYP cc-pVTZ 
|  4> ! PAL6 
|  5> ! OPT ANFREQ 
|  6> ! XYZFILE 
|  7>  %base "CH3OH_OPT"
|  8> * xyz 0 1
|  9>    C        1.02634        -0.09302        -0.01210
| 10>    O        2.44206        -0.10289        -0.01624
| 11>    H        0.66483         0.72484        -0.64023
| 12>    H        0.66483         0.03214         1.01151
| 13>    H        0.66325        -1.04333        -0.41063
| 14>    H        3.03498         1.05211         0.34233
| 15> *
| 16> 
| 17>                          ****END OF INPUT****
================================================================================

                       *****************************
                       * Geometry Optimization Run *
                       *****************************

Geometry optimization settings:
Update method            Update   .... BFGS
Choice of coordinates    CoordSys .... (2022) Redundant Internals
Initial Hessian          InHess   .... Almloef's Model
Max. no of cycles        MaxIter  .... 50

Convergence Tolerances:
Energy Change            TolE     ....  5.0000e-06 Eh
Max. Gradient            TolMAXG  ....  3.0000e-04 Eh/bohr
RMS Gradient             TolRMSG  ....  1.0000e-04 Eh/bohr
Max. Displacement        TolMAXD  ....  4.0000e-03 bohr
RMS Displacement         TolRMSD  ....  2.0000e-03 bohr
Strict Convergence                .... False

------------------------------------------------------------------------------
                        ORCA OPTIMIZATION COORDINATE SETUP
------------------------------------------------------------------------------

The optimization will be done in redundant internal coordinates (2022)
Making redundant internal coordinates   ...  (2022 redundants) done
Evaluating the initial hessian          ...  (Almloef) done
Evaluating the coordinates              ...  done
Calculating the B-matrix                .... done
Calculating the G-matrix                .... done
Diagonalizing the G-matrix              .... done
The first mode is                       ....    3
The number of degrees of freedom        ....   12

    -----------------------------------------------------------------
                    Redundant Internal Coordinates


    -----------------------------------------------------------------
         Definition                    Initial Value    Approx d2E/dq
    -----------------------------------------------------------------
      1. B(O   1,C   0)                  1.4158         0.509069   
      2. B(H   2,C   0)                  1.0928         0.356463   
      3. B(H   3,C   0)                  1.0928         0.356463   
      4. B(H   4,C   0)                  1.0926         0.356692   
      5. B(H   5,O   1)                  1.3469         0.125512   
      6. A(O   1,C   0,H   3)          109.5330         0.338741   
      7. A(O   1,C   0,H   2)          109.5330         0.338741   
      8. A(O   1,C   0,H   4)          108.9765         0.338777   
      9. A(H   2,C   0,H   4)          109.3517         0.289943   
     10. A(H   3,C   0,H   4)          109.3511         0.289943   
     11. A(H   2,C   0,H   3)          110.0761         0.289914   
     12. A(C   0,O   1,H   5)          115.6861         0.283892   
     13. D(H   5,O   1,C   0,H   3)    -65.8945         0.020513   
     14. D(H   5,O   1,C   0,H   4)    174.5155         0.020513   
     15. D(H   5,O   1,C   0,H   2)     54.9247         0.020513   
    -----------------------------------------------------------------

Number of atoms                         .... 6
Number of degrees of freedom            .... 15


         *************************************************************
         *                GEOMETRY OPTIMIZATION CYCLE   1            *
         *************************************************************
---------------------------------
CARTESIAN COORDINATES (ANGSTROEM)
---------------------------------
  C      1.026340   -0.093020   -0.012100
  O      2.442060   -0.102890   -0.016240
  H      0.664830    0.724840   -0.640230
  H      0.664830    0.032140    1.011510
  H      0.663250   -1.043330   -0.410630
  H      3.034980    1.052110    0.342330

----------------------------
CARTESIAN COORDINATES (A.U.)
----------------------------
  NO LB      ZA    FRAG     MASS         X           Y           Z
   0 C     6.0000    0    12.011    1.939502   -0.175782   -0.022866
   1 O     8.0000    0    15.999    4.614825   -0.194434   -0.030689
   2 H     1.0000    0     1.008    1.256347    1.369749   -1.209859
   3 H     1.0000    0     1.008    1.256347    0.060736    1.911477
   4 H     1.0000    0     1.008    1.253361   -1.971608   -0.775978
   5 H     1.0000    0     1.008    5.735281    1.988200    0.646910

--------------------------------
INTERNAL COORDINATES (ANGSTROEM)
--------------------------------
 C      0   0   0     0.000000000000     0.00000000     0.00000000
 O      1   0   0     1.415760458164     0.00000000     0.00000000
 H      1   2   0     1.092763358006   109.53297068     0.00000000
 H      1   2   3     1.092763440915   109.53301843   239.18077474
 H      1   2   3     1.092588488453   108.97654741   119.59073922
 H      2   1   3     1.346904440300   115.68607735    54.92473525

---------------------------
INTERNAL COORDINATES (A.U.)
---------------------------
 C      0   0   0     0.000000000000     0.00000000     0.00000000
 O      1   0   0     2.675399537164     0.00000000     0.00000000
 H      1   2   0     2.065023475815   109.53297068     0.00000000
 H      1   2   3     2.065023632490   109.53301843   239.18077474
 H      1   2   3     2.064693020251   108.97654741   119.59073922
 H      2   1   3     2.545280520730   115.68607735    54.92473525

---------------------
BASIS SET INFORMATION
---------------------
There are 3 groups of distinct atoms

 Group   1 Type C   : 18s5p2d1f contracted to 4s3p2d1f pattern {8811/311/11/1}
 Group   2 Type O   : 18s5p2d1f contracted to 4s3p2d1f pattern {8811/311/11/1}
 Group   3 Type H   : 5s2p1d contracted to 3s2p1d pattern {311/11/1}

Atom   0C    basis set group =>   1
Atom   1O    basis set group =>   2
Atom   2H    basis set group =>   3
Atom   3H    basis set group =>   3
Atom   4H    basis set group =>   3
Atom   5H    basis set group =>   3
---------------------------------
AUXILIARY/J BASIS SET INFORMATION
---------------------------------
There are 3 groups of distinct atoms

 Group   1 Type C   : 12s5p4d2f1g contracted to 6s4p3d1f1g pattern {711111/2111/211/2/1}
 Group   2 Type O   : 12s5p4d2f1g contracted to 6s4p3d1f1g pattern {711111/2111/211/2/1}
 Group   3 Type H   : 5s2p1d contracted to 3s1p1d pattern {311/2/1}

Atom   0C    basis set group =>   1
Atom   1O    basis set group =>   2
Atom   2H    basis set group =>   3
Atom   3H    basis set group =>   3
Atom   4H    basis set group =>   3
Atom   5H    basis set group =>   3


           ************************************************************
           *        Program running with 6 parallel MPI-processes     *
           *              working on a common directory               *
           ************************************************************
------------------------------------------------------------------------------
                             ORCA STARTUP CALCULATIONS
                           -- RI-GTO INTEGRALS CHOSEN --
------------------------------------------------------------------------------
------------------------------------------------------------------------------
                   ___                                                        
                  /   \      - P O W E R E D   B Y -                         
                 /     \                                                     
                 |  |  |   _    _      __       _____    __    __             
                 |  |  |  | |  | |    /  \     |  _  \  |  |  /  |          
                  \  \/   | |  | |   /    \    | | | |  |  | /  /          
                 / \  \   | |__| |  /  /\  \   | |_| |  |  |/  /          
                |  |  |   |  __  | /  /__\  \  |    /   |      \           
                |  |  |   | |  | | |   __   |  |    \   |  |\   \          
                \     /   | |  | | |  |  |  |  | |\  \  |  | \   \       
                 \___/    |_|  |_| |__|  |__|  |_| \__\ |__|  \__/        
                                                                              
                      - O R C A' S   B I G   F R I E N D -                    
                                      &                                       
                       - I N T E G R A L  F E E D E R -                       
                                                                              
 v1 FN, 2020, v2 2021, v3 2022-2024                                           
------------------------------------------------------------------------------


----------------------
SHARK INTEGRAL PACKAGE
----------------------

Number of atoms                             ...      6
Number of basis functions                   ...    128
Number of shells                            ...     56
Maximum angular momentum                    ...      3
Integral batch strategy                     ... SHARK/LIBINT Hybrid
RI-J (if used) integral strategy            ... SPLIT-RIJ (Revised 2003 algorithm where possible)
Printlevel                                  ...      1
Contraction scheme used                     ... PARTIAL GENERAL contraction
Prescreening option                         ... SCHWARTZ
   Thresh                                   ... 2.500e-11
   Tcut                                     ... 2.500e-12
   Tpresel                                  ... 2.500e-12 
Coulomb Range Separation                    ... NOT USED
Exchange Range Separation                   ... NOT USED
Multipole approximations                    ... NOT USED
Finite Nucleus Model                        ... NOT USED
CABS basis                                  ... NOT available
Auxiliary Coulomb fitting basis             ... AVAILABLE
   # of basis functions in Aux-J            ...    142
   # of shells in Aux-J                     ...     50
   Maximum angular momentum in Aux-J        ...      4
Auxiliary J/K fitting basis                 ... NOT available
Auxiliary Correlation fitting basis         ... NOT available
Auxiliary 'external' fitting basis          ... NOT available

Checking pre-screening integrals            ... done (  0.0 sec) Dimension = 56
Save PGC pre-screening integrals            ... done (  0.0 sec) Dimension = 56
Calculate PGC overlap integrals             ... done (  0.0 sec) Dimension = 44
Calculating pre-screening integrals (ORCA)  ... done (  0.1 sec) Dimension = 44
Check shell pair data                       ... done (  0.0 sec)
Shell pair information
Shell pair cut-off parameter TPreSel        ...   2.5e-12
Total number of shell pairs                 ...      1596
Shell pairs after pre-screening             ...      1551
Total number of primitive shell pairs       ...      2364
Primitive shell pairs kept                  ...      2148
          la=0 lb=0:    486 shell pairs
          la=1 lb=0:    445 shell pairs
          la=1 lb=1:    105 shell pairs
          la=2 lb=0:    256 shell pairs
          la=2 lb=1:    112 shell pairs
          la=2 lb=2:     36 shell pairs
          la=3 lb=0:     64 shell pairs
          la=3 lb=1:     28 shell pairs
          la=3 lb=2:     16 shell pairs
          la=3 lb=3:      3 shell pairs

Calculating one electron integrals          ... done (  0.0 sec)
Calculating RI/J V-Matrix + Cholesky decomp.... done (  0.0 sec)
Calculating Nuclear repulsion               ... done (  0.0 sec) ENN=     38.793462698833 Eh

Diagonalization of the overlap matrix:
Smallest eigenvalue                        ... 1.868e-03
Time for diagonalization                   ...    0.003 sec
Threshold for overlap eigenvalues          ... 1.000e-07
Number of eigenvalues below threshold      ... 0
Time for construction of square roots      ...    0.001 sec
Total time needed                          ...    0.004 sec

-------------------
DFT GRID GENERATION
-------------------

General Integration Accuracy     IntAcc      ... 4.388
Radial Grid Type                 RadialGrid  ... OptM3 with GC (2021)
Angular Grid (max. ang.)         AngularGrid ... 4 (Lebedev-302)
Angular grid pruning method      GridPruning ... 4 (adaptive)
Weight generation scheme         WeightScheme... mBecke (2022)
Basis function cutoff            BFCut       ... 1.0000e-11
Integration weight cutoff        WCut        ... 1.0000e-14
Partially contracted basis set               ... off
Rotationally invariant grid construction     ... off
Angular grids for H and He will be reduced by one unit

Total number of grid points                  ...    25345
Total number of batches                      ...      399
Average number of points per batch           ...       63
Average number of grid points per atom       ...     4224

---------------------
SHARK GRID GENERATION
---------------------

General Integration Accuracy     IntAcc      ... 4.388
Radial Grid Type                 RadialGrid  ... OptM3 with GC (2021)
Angular Grid (max. ang.)         AngularGrid ... 4 (Lebedev-302)
Angular grid pruning method      GridPruning ... 4 (adaptive)
Weight generation scheme         WeightScheme... mBecke (2022)
Basis function cutoff            BFCut       ... 1.0000e-11
Integration weight cutoff        WCut        ... 1.0000e-14
Partially contracted basis set               ... off
Rotationally invariant grid construction     ... off
Angular grids for H and He will be reduced by one unit
Steep s-basis detected: some atoms will have their radial
                        grid points doubled.

Total number of grid points                  ...    37752
Total number of batches                      ...      593
Average number of points per batch           ...       63
Average number of grid points per atom       ...     6292

--------------------
COSX GRID GENERATION
--------------------

GRIDX 1
-------
General Integration Accuracy     IntAcc      ... 3.816
Radial Grid Type                 RadialGrid  ... OptM3 with GC (2021)
Angular Grid (max. ang.)         AngularGrid ... 1 (Lebedev-50)
Angular grid pruning method      GridPruning ... 4 (adaptive)
Weight generation scheme         WeightScheme... mBecke (2022)
Basis function cutoff            BFCut       ... 1.0000e-11
Integration weight cutoff        WCut        ... 1.0000e-14
Partially contracted basis set               ... on
Rotationally invariant grid construction     ... off
Angular grids for H and He will be reduced by one unit

Total number of grid points                  ...     3287
Total number of batches                      ...       28
Average number of points per batch           ...      117
Average number of grid points per atom       ...      548
UseSFitting                                  ... on

GRIDX 2
-------
General Integration Accuracy     IntAcc      ... 4.020
Radial Grid Type                 RadialGrid  ... OptM3 with GC (2021)
Angular Grid (max. ang.)         AngularGrid ... 2 (Lebedev-110)
Angular grid pruning method      GridPruning ... 4 (adaptive)
Weight generation scheme         WeightScheme... mBecke (2022)
Basis function cutoff            BFCut       ... 1.0000e-11
Integration weight cutoff        WCut        ... 1.0000e-14
Partially contracted basis set               ... on
Rotationally invariant grid construction     ... off
Angular grids for H and He will be reduced by one unit

Total number of grid points                  ...     6921
Total number of batches                      ...       58
Average number of points per batch           ...      119
Average number of grid points per atom       ...     1154
UseSFitting                                  ... on

GRIDX 3
-------
General Integration Accuracy     IntAcc      ... 4.338
Radial Grid Type                 RadialGrid  ... OptM3 with GC (2021)
Angular Grid (max. ang.)         AngularGrid ... 3 (Lebedev-194)
Angular grid pruning method      GridPruning ... 4 (adaptive)
Weight generation scheme         WeightScheme... mBecke (2022)
Basis function cutoff            BFCut       ... 1.0000e-11
Integration weight cutoff        WCut        ... 1.0000e-14
Partially contracted basis set               ... on
Rotationally invariant grid construction     ... off
Angular grids for H and He will be reduced by one unit

Total number of grid points                  ...    15269
Total number of batches                      ...      122
Average number of points per batch           ...      125
Average number of grid points per atom       ...     2545
UseSFitting                                  ... on
Initializing property integral containers    ... done (  0.0 sec)

SHARK setup successfully completed in   0.9 seconds

Maximum memory used throughout the entire STARTUP-calculation: 19.3 MB


           ************************************************************
           *        Program running with 6 parallel MPI-processes     *
           *              working on a common directory               *
           ************************************************************
-------------------------------------------------------------------------------
                                 ORCA GUESS
                   Start orbitals & Density for SCF / CASSCF
-------------------------------------------------------------------------------

------------
SCF SETTINGS
------------
Hamiltonian:
 Density Functional     Method          .... DFT(GTOs)
 Exchange Functional    Exchange        .... B88
   X-Alpha parameter    XAlpha          ....  0.666667
   Becke's b parameter  XBeta           ....  0.004200
 Correlation Functional Correlation     .... LYP
 Gradients option       PostSCFGGA      .... off
 Hybrid DFT is turned on
   Fraction HF Exchange ScalHFX         ....  0.500000
   Scaling of DF-GGA-X  ScalDFX         ....  0.500000
   Scaling of DF-GGA-C  ScalDFC         ....  1.000000
   Scaling of DF-LDA-C  ScalLDAC        ....  1.000000
   Perturbative correction              ....  0.000000
 RI-approximation to the Coulomb term is turned on
   Number of AuxJ basis functions       .... 142
   RIJ-COSX (HFX calculated with COS-X)).... on


General Settings:
 Integral files         IntName         .... CH3OH_OPT
 Hartree-Fock type      HFTyp           .... RHF
 Total Charge           Charge          ....    0
 Multiplicity           Mult            ....    1
 Number of Electrons    NEL             ....   18
 Basis Dimension        Dim             ....  116
 Nuclear Repulsion      ENuc            ....     38.7934626988 Eh

Convergence Acceleration:
 AO-DIIS                CNVDIIS         .... on
   Start iteration      DIISMaxIt       ....    12
   Startup error        DIISStart       ....  0.200000
   # of expansion vecs  DIISMaxEq       ....     5
   Bias factor          DIISBfac        ....   1.050
   Max. coefficient     DIISMaxC        ....  10.000
 MO-DIIS                CNVKDIIS        .... off
 Trust-Rad. Augm. Hess. CNVTRAH         .... auto
   Auto Start mean grad. ratio tolernc. ....  1.125000
   Auto Start start iteration           ....    50
   Auto Start num. interpolation iter.  ....    10
   Max. Number of Micro iterations      ....    24
   Max. Number of Macro iterations      .... Maxiter - #DIIS iter
   Number of Davidson start vectors     ....     2
   Converg. threshold    (grad. norm)   ....   1.000e-05
   Grad. Scal. Fac. for Micro threshold ....   0.100
   Minimum threshold for Micro iter.    ....   1.000e-02
   NR start threshold (gradient norm)   ....   1.000e-04
   Initial trust radius                 ....   0.400
   Minimum AH scaling param. (alpha)    ....   1.000
   Maximum AH scaling param. (alpha)    .... 1000.000
   Quad. conv. algorithm                .... NR
   White noise on init. David. guess    .... on
   Maximum white noise                  ....   0.010
   Pseudo random numbers                .... off
   Inactive MOs                         .... canonical
   Orbital update algorithm             .... Taylor
   Preconditioner                       .... Diag
   Full preconditioner red. dimension   ....   250
 SOSCF                  CNVSOSCF        .... on
   Start iteration      SOSCFMaxIt      ....   150
   Startup grad/error   SOSCFStart      ....  0.003300
   Hessian update       SOSCFHessUp     .... L-BFGS
 Level Shifting         CNVShift        .... on
   Level shift para.    LevelShift      ....    0.2500
   Turn off err/grad.   ShiftErr        ....    0.0010
 Zerner damping         CNVZerner       .... off
 Static damping         CNVDamp         .... on
   Fraction old density DampFac         ....    0.7000
   Max. Damping (<1)    DampMax         ....    0.9800
   Min. Damping (>=0)   DampMin         ....    0.0000
   Turn off err/grad.   DampErr         ....    0.1000

SCF Procedure:
 Maximum # iterations   MaxIter         ....   125
 SCF integral mode      SCFMode         .... Direct
   Integral package                     .... SHARK and LIBINT hybrid scheme
 Reset frequency        DirectResetFreq ....    20
 Integral Threshold     Thresh          ....  2.500e-11 Eh
 Primitive CutOff       TCut            ....  2.500e-12 Eh

Convergence Tolerance:
 Convergence Check Mode ConvCheckMode   .... Total+1el-Energy
 Convergence forced     ConvForced      .... 0
 Energy Change          TolE            ....  1.000e-08 Eh
 1-El. energy change                    ....  1.000e-05 Eh
 Orbital Gradient       TolG            ....  1.000e-05
 Orbital Rotation angle TolX            ....  1.000e-05
 DIIS Error             TolErr          ....  5.000e-07

------------------------------
INITIAL GUESS: MODEL POTENTIAL
------------------------------
Loading Hartree-Fock densities                     ... done
Calculating cut-offs                               ... done
Initializing the effective Hamiltonian             ... done
Setting up the integral package (SHARK)            ... done
Starting the Coulomb interaction                   ... done (   0.0 sec)
Making the grid                                    ... done (   0.0 sec)
Mapping shells                                     ... done
Starting the XC term evaluation                    ... done (   0.0 sec)
  promolecular density results
     # of electrons  =     17.997731059
     EX              =    -14.448755851
     EC              =     -0.584339870
     EX+EC           =    -15.033095720
Transforming the Hamiltonian                       ... done (   0.0 sec)
Diagonalizing the Hamiltonian                      ... done (   0.0 sec)
Back transforming the eigenvectors                 ... done (   0.0 sec)
Now organizing SCF variables                       ... done
                      ------------------
                      INITIAL GUESS DONE (   0.1 sec)
                      ------------------
             **** ENERGY FILE WAS UPDATED (CH3OH_OPT.en.tmp) ****
Finished Guess after   0.2 sec
Maximum memory used throughout the entire GUESS-calculation: 8.7 MB


           ************************************************************
           *        Program running with 6 parallel MPI-processes     *
           *              working on a common directory               *
           ************************************************************

-------------------------------------------------------------------------------------------
                                      ORCA LEAN-SCF
                              memory conserving SCF solver
-------------------------------------------------------------------------------------------

----------------------------------------D-I-I-S--------------------------------------------
Iteration    Energy (Eh)           Delta-E    RMSDP     MaxDP     DIISErr   Damp  Time(sec)
-------------------------------------------------------------------------------------------
               ***  Starting incremental Fock matrix formation  ***
    1    -115.4953670400750383     0.00e+00  1.96e-03  4.37e-02  3.40e-01  0.700   0.3
    2    -115.5541445357252002    -5.88e-02  1.33e-03  2.51e-02  1.59e-01  0.700   0.2
                               ***Turning on AO-DIIS***
    3    -115.5778768743849270    -2.37e-02  4.92e-04  9.06e-03  5.76e-02  0.700   0.2
    4    -115.5922469420513181    -1.44e-02  8.62e-04  1.33e-02  3.50e-02  0.000   0.2
    5    -115.6243854778082465    -3.21e-02  1.47e-04  2.11e-03  5.05e-03  0.000   0.2
                              *** Initializing SOSCF ***
---------------------------------------S-O-S-C-F--------------------------------------
Iteration    Energy (Eh)           Delta-E    RMSDP     MaxDP     MaxGrad    Time(sec)
--------------------------------------------------------------------------------------
    6    -115.6244709279030332    -8.55e-05  6.20e-05  1.04e-03  2.69e-03     0.2
               *** Restarting incremental Fock matrix formation ***
    7    -115.6244843156940618    -1.34e-05  3.34e-05  5.00e-04  2.44e-04     0.3
    8    -115.6244850079252302    -6.92e-07  1.76e-05  2.90e-04  2.74e-04     0.3
    9    -115.6244857260012253    -7.18e-07  5.22e-06  8.34e-05  3.67e-05     0.3
   10    -115.6244857419985266    -1.60e-08  1.06e-06  2.81e-05  3.08e-05     0.3
   11    -115.6244857528034942    -1.08e-08  3.02e-07  4.79e-06  2.17e-06     0.3
                  *** Gradient check signals convergence ***

               *****************************************************
               *                     SUCCESS                       *
               *           SCF CONVERGED AFTER  11 CYCLES          *
               *****************************************************

Recomputing exchange energy using gridx3       ... done (    0.417 sec)
Old exchange energy                            :     -7.346448781 Eh
New exchange energy                            :     -7.346415745 Eh
Exchange energy change after final integration :      0.000033036 Eh
Total energy after final integration           :   -115.624452717 Eh
             **** ENERGY FILE WAS UPDATED (CH3OH_OPT.en.tmp) ****

----------------
TOTAL SCF ENERGY
----------------

Total Energy       :       -115.62445271658686 Eh           -3146.30131 eV

Components:
Nuclear Repulsion  :         38.79346269883315 Eh            1055.62379 eV
Electronic Energy  :       -154.41794845163665 Eh           -4201.92600 eV
One Electron Energy:       -234.24271095909646 Eh           -6374.06822 eV
Two Electron Energy:         79.82476250745981 Eh            2172.14222 eV

Virial components:
Potential Energy   :       -230.32743978114780 Eh           -6267.52827 eV
Kinetic Energy     :        114.70298706456096 Eh            3121.22696 eV
Virial Ratio       :          2.00803349307292

DFT components:
N(Alpha)           :        9.000003918521 electrons
N(Beta)            :        9.000003918521 electrons
N(Total)           :       18.000007837043 electrons
E(X)               :       -7.383208936160 Eh       
E(C)               :       -0.591063482047 Eh       
E(XC)              :       -7.974272418207 Eh       

---------------
SCF CONVERGENCE
---------------

  Last Energy change         ...    1.0805e-08  Tolerance :   1.0000e-08
  Last MAX-Density change    ...    4.7873e-06  Tolerance :   1.0000e-07
  Last RMS-Density change    ...    3.0226e-07  Tolerance :   5.0000e-09
  Last DIIS Error            ...    2.6888e-03  Tolerance :   5.0000e-07
  Last Orbital Gradient      ...    2.1661e-06  Tolerance :   1.0000e-05
  Last Orbital Rotation      ...    7.3785e-06  Tolerance :   1.0000e-05


----------------
ORBITAL ENERGIES
----------------

  NO   OCC          E(Eh)            E(eV) 
   0   2.0000     -19.691878      -535.8432 
   1   2.0000     -10.620762      -289.0056 
   2   2.0000      -1.105691       -30.0874 
   3   2.0000      -0.758572       -20.6418 
   4   2.0000      -0.532119       -14.4797 
   5   2.0000      -0.512133       -13.9358 
   6   2.0000      -0.491228       -13.3670 
   7   2.0000      -0.376848       -10.2546 
   8   2.0000      -0.338397        -9.2082 
   9   0.0000      -0.002937        -0.0799 
  10   0.0000       0.088494         2.4080 
  11   0.0000       0.149200         4.0599 
  12   0.0000       0.153203         4.1689 
  13   0.0000       0.188411         5.1269 
  14   0.0000       0.300182         8.1684 
  15   0.0000       0.311740         8.4829 
  16   0.0000       0.326891         8.8952 
  17   0.0000       0.426191        11.5972 
  18   0.0000       0.509187        13.8557 
  19   0.0000       0.513174        13.9642 
*Only the first 10 virtual orbitals were printed.

                    ********************************
                    * MULLIKEN POPULATION ANALYSIS *
                    ********************************

-----------------------
MULLIKEN ATOMIC CHARGES
-----------------------
   0 C :   -0.045198
   1 O :   -0.432346
   2 H :    0.068458
   3 H :    0.067405
   4 H :    0.103543
   5 H :    0.238138
Sum of atomic charges:   -0.0000000

--------------------------------
MULLIKEN REDUCED ORBITAL CHARGES
--------------------------------
  0 C s       :     3.231939  s :     3.231939
      pz      :     1.009936  p :     2.717902
      px      :     0.675296
      py      :     1.032671
      dz2     :     0.011207  d :     0.086962
      dxz     :     0.021997
      dyz     :     0.007663
      dx2y2   :     0.023129
      dxy     :     0.022965
      f0      :     0.001559  f :     0.008395
      f+1     :     0.001107
      f-1     :     0.000258
      f+2     :     0.002009
      f-2     :    -0.000101
      f+3     :     0.001765
      f-3     :     0.001797

  1 O s       :     3.815930  s :     3.815930
      pz      :     1.863722  p :     4.591888
      px      :     1.321389
      py      :     1.406776
      dz2     :     0.003480  d :     0.023177
      dxz     :     0.003727
      dyz     :     0.001514
      dx2y2   :     0.009527
      dxy     :     0.004929
      f0      :     0.000162  f :     0.001351
      f+1     :     0.000348
      f-1     :     0.000080
      f+2     :     0.000137
      f-2     :     0.000041
      f+3     :     0.000408
      f-3     :     0.000174

  2 H s       :     0.904326  s :     0.904326
      pz      :     0.009382  p :     0.024916
      px      :     0.005757
      py      :     0.009778
      dz2     :     0.000572  d :     0.002300
      dxz     :     0.000282
      dyz     :     0.000489
      dx2y2   :     0.000522
      dxy     :     0.000434

  3 H s       :     0.906172  s :     0.906172
      pz      :     0.009074  p :     0.024126
      px      :     0.005262
      py      :     0.009789
      dz2     :     0.000732  d :     0.002297
      dxz     :     0.000650
      dyz     :     0.000745
      dx2y2   :     0.000111
      dxy     :     0.000058

  4 H s       :     0.868595  s :     0.868595
      pz      :     0.011068  p :     0.025626
      px      :     0.004734
      py      :     0.009825
      dz2     :     0.000378  d :     0.002236
      dxz     :     0.000159
      dyz     :     0.000618
      dx2y2   :     0.000483
      dxy     :     0.000597

  5 H s       :     0.716033  s :     0.716033
      pz      :     0.013682  p :     0.042685
      px      :     0.010821
      py      :     0.018182
      dz2     :     0.000444  d :     0.003144
      dxz     :     0.000274
      dyz     :     0.000783
      dx2y2   :     0.000713
      dxy     :     0.000931



                     *******************************
                     * LOEWDIN POPULATION ANALYSIS *
                     *******************************

----------------------
LOEWDIN ATOMIC CHARGES
----------------------
   0 C :   -0.045165
   1 O :    0.061609
   2 H :   -0.048833
   3 H :   -0.049243
   4 H :   -0.029127
   5 H :    0.110758

-------------------------------
LOEWDIN REDUCED ORBITAL CHARGES
-------------------------------
  0 C s       :     2.698792  s :     2.698792
      pz      :     1.021135  p :     2.818525
      px      :     0.771752
      py      :     1.025637
      dz2     :     0.066517  d :     0.462520
      dxz     :     0.133677
      dyz     :     0.043697
      dx2y2   :     0.118160
      dxy     :     0.100470
      f0      :     0.009763  f :     0.065327
      f+1     :     0.010126
      f-1     :     0.001489
      f+2     :     0.013449
      f-2     :     0.003749
      f+3     :     0.014144
      f-3     :     0.012607

  1 O s       :     3.418668  s :     3.418668
      pz      :     1.756860  p :     4.458417
      px      :     1.337544
      py      :     1.364014
      dz2     :     0.005941  d :     0.058130
      dxz     :     0.013532
      dyz     :     0.001739
      dx2y2   :     0.017220
      dxy     :     0.019697
      f0      :     0.000379  f :     0.003175
      f+1     :     0.000438
      f-1     :     0.000073
      f+2     :     0.000630
      f-2     :     0.000044
      f+3     :     0.000711
      f-3     :     0.000901

  2 H s       :     0.871721  s :     0.871721
      pz      :     0.053456  p :     0.149200
      px      :     0.035040
      py      :     0.060705
      dz2     :     0.006843  d :     0.027911
      dxz     :     0.003388
      dyz     :     0.006675
      dx2y2   :     0.005954
      dxy     :     0.005051

  3 H s       :     0.872180  s :     0.872180
      pz      :     0.073049  p :     0.149174
      px      :     0.034751
      py      :     0.041374
      dz2     :     0.009075  d :     0.027890
      dxz     :     0.007572
      dyz     :     0.008972
      dx2y2   :     0.001406
      dxy     :     0.000865

  4 H s       :     0.855755  s :     0.855755
      pz      :     0.046178  p :     0.145639
      px      :     0.030901
      py      :     0.068559
      dz2     :     0.004583  d :     0.027734
      dxz     :     0.001811
      dyz     :     0.007800
      dx2y2   :     0.006860
      dxy     :     0.006680

  5 H s       :     0.727010  s :     0.727010
      pz      :     0.036634  p :     0.138607
      px      :     0.025306
      py      :     0.076668
      dz2     :     0.003149  d :     0.023624
      dxz     :     0.001663
      dyz     :     0.005764
      dx2y2   :     0.006661
      dxy     :     0.006389



                      *****************************
                      * MAYER POPULATION ANALYSIS *
                      *****************************

  NA   - Mulliken gross atomic population
  ZA   - Total nuclear charge
  QA   - Mulliken gross atomic charge
  VA   - Mayer's total valence
  BVA  - Mayer's bonded valence
  FA   - Mayer's free valence

  ATOM       NA         ZA         QA         VA         BVA        FA
  0 C      6.0452     6.0000    -0.0452     3.9116     3.9116    -0.0000
  1 O      8.4323     8.0000    -0.4323     1.9452     1.9452    -0.0000
  2 H      0.9315     1.0000     0.0685     0.9654     0.9654     0.0000
  3 H      0.9326     1.0000     0.0674     0.9632     0.9632    -0.0000
  4 H      0.8965     1.0000     0.1035     0.9711     0.9711    -0.0000
  5 H      0.7619     1.0000     0.2381     0.9687     0.9687     0.0000

  Mayer bond orders larger than 0.100000
B(  0-C ,  1-O ) :   1.0127 B(  0-C ,  2-H ) :   0.9624 B(  0-C ,  3-H ) :   0.9598 
B(  0-C ,  4-H ) :   0.9544 B(  1-O ,  5-H ) :   0.9251 

-------
TIMINGS
-------

Total SCF time: 0 days 0 hours 0 min 3 sec 

Total time                  ....       3.603 sec
Sum of individual times     ....       3.587 sec  ( 99.6%)

SCF preparation             ....       0.156 sec  (  4.3%)
Fock matrix formation       ....       3.252 sec  ( 90.3%)
  Startup                   ....       0.007 sec  (  0.2% of F)
  Split-RI-J                ....       0.149 sec  (  4.6% of F)
  Chain of spheres X        ....       2.381 sec  ( 73.2% of F)
  XC integration            ....       0.685 sec  ( 21.1% of F)
    XC Preparation          ....       0.000 sec  (  0.0% of XC)
    Basis function eval.    ....       0.239 sec  ( 34.8% of XC)
    Density eval.           ....       0.158 sec  ( 23.0% of XC)
    XC-Functional eval.     ....       0.027 sec  (  4.0% of XC)
    XC-Potential eval.      ....       0.190 sec  ( 27.8% of XC)
Diagonalization             ....       0.000 sec  (  0.0%)
Density matrix formation    ....       0.014 sec  (  0.4%)
Total Energy calculation    ....       0.017 sec  (  0.5%)
Population analysis         ....       0.011 sec  (  0.3%)
Orbital Transformation      ....       0.018 sec  (  0.5%)
Orbital Orthonormalization  ....       0.000 sec  (  0.0%)
DIIS solution               ....       0.084 sec  (  2.3%)
SOSCF solution              ....       0.034 sec  (  1.0%)
Finished LeanSCF after   3.6 sec

Maximum memory used throughout the entire LEANSCF-calculation: 10.1 MB


           ************************************************************
           *        Program running with 6 parallel MPI-processes     *
           *              working on a common directory               *
           ************************************************************

------------------------------------------------------------------------------
                         ORCA PROPERTY INTEGRAL CALCULATIONS
------------------------------------------------------------------------------

GBWName                                   ... CH3OH_OPT.gbw
Number of atoms                           ...      6
Number of basis functions                 ...    128
Max core memory                           ...   1024 MB

Dipole integrals                          ... YES
Quadrupole integrals                      ...  NO
Linear momentum integrals                 ...  NO
Angular momentum integrals                ...  NO
Higher moments length integrals           ...  NO
Higher moments velocity integrals         ...  NO
Kinetic energy integrals                  ...  NO
GIAO right hand sides                     ...  NO
GIAO dipole derivative integrals          ...  NO
SOC integrals                             ...  NO
EPR diamagnetic integrals (GIAO)          ...  NO
EPR gauge integrals                       ...  NO
Field gradient integrals                  ...  NO (   0 nuclei)
Spin-dipole/Fermi contact integrals       ...  NO (   0 nuclei)
Contact density integrals                 ...  NO (   0 nuclei)
Nucleus-orbit integrals                   ...  NO (   0 nuclei)
Geometric perturbations                   ...  NO (   6 nuclei)

Choice of electric origin   ... Center of mass
Position of electric origin ... (  3.3302, -0.1175, -0.0059) 
Choice of magnetic origin   ... GIAO
Position of magnetic origin ... (  0.0000,  0.0000,  0.0000) 

Calculating integrals                     ... Electric Dipole (Length)     done (  0.0 sec)

Property integrals calculated in   0.0 sec

Maximum memory used throughout the entire PROPINT-calculation: 8.9 MB

-------------------------   --------------------
FINAL SINGLE POINT ENERGY      -115.624452716587
-------------------------   --------------------



           ************************************************************
           *        Program running with 6 parallel MPI-processes     *
           *              working on a common directory               *
           ************************************************************
------------------------------------------------------------------------------
                         ORCA SCF GRADIENT CALCULATION
------------------------------------------------------------------------------

Nuc. rep. gradient        (SHARK) ... done (  0.0 sec)
HCore & Overlap gradient  (SHARK) ... done (  0.0 sec)
Split-RIJ-J gradient      (SHARK) ... done (  0.2 sec)
COSX-gradient                     ... done (  1.9 sec)
XC gradient                       ... done (  0.4 sec)

------------------
CARTESIAN GRADIENT
------------------

   1   C   :   -0.011670817   -0.023116874   -0.008246126
   2   O   :   -0.056937572   -0.085586543   -0.025321604
   3   H   :    0.004995402    0.006169512   -0.003569195
   4   H   :    0.004520850    0.001185417    0.006450916
   5   H   :   -0.008239119   -0.004398507   -0.001746767
   6   H   :    0.067331256    0.105746995    0.032432776

Difference to translation invariance:
           :    0.0000000000   -0.0000000000   -0.0000000000

Difference to rotation invariance:
           :    0.0000238352   -0.0000314321    0.0000626160

Norm of the Cartesian gradient     ...    0.1701294455
RMS gradient                       ...    0.0400998949
MAX gradient                       ...    0.1057469948

-------
TIMINGS
-------

Total SCF gradient time     ....        2.430 sec

Densities                   ....       0.000 sec  (  0.0%)
One electron gradient       ....       0.024 sec  (  1.0%)
RI-J Coulomb gradient       ....       0.158 sec  (  6.5%)
COSX gradient               ....       1.879 sec  ( 77.3%)
XC gradient                 ....       0.369 sec  ( 15.2%)

Maximum memory used throughout the entire SCFGRAD-calculation: 13.1 MB
------------------------------------------------------------------------------
                         ORCA GEOMETRY RELAXATION STEP
------------------------------------------------------------------------------

Reading the OPT-File                    .... done
Getting information on internals        .... done
Copying old internal coords+grads       .... done
Making the new internal coordinates     .... (2022 redundants) done
Validating the new internal coordinates .... (2022 redundants) done
Calculating the B-matrix                .... done
Calculating the G,G- and P matrices     .... done
Transforming gradient to internals      .... done
Projecting the internal gradient        .... done
Number of atoms                         ....   6
Number of internal coordinates          ....  15
Current Energy                          ....  -115.624452717 Eh
Current gradient norm                   ....     0.170129446 Eh/bohr
Maximum allowed component of the step   ....  0.300
Current trust radius                    ....  0.300
Evaluating the initial hessian          ....  (Almloef) done
Projecting the Hessian                  .... done
Forming the augmented Hessian           .... done
Diagonalizing the augmented Hessian     .... done
Last element of RFO vector              ....  0.847903838
Lowest eigenvalues of augmented Hessian:
 -0.083616695  0.020513918  0.189430674  0.191754967  0.202875484
Length of the computed step             ....  0.625247854
Warning: the length of the step is outside the trust region - taking restricted step instead
The input lambda is                     ....     0.019513
   iter:   5  x=   -0.255611  g=    1.254013 f(x)=     0.100992
   iter:  10  x=   -0.314587  g=    0.403649 f(x)=     0.000000
The output lambda is                    ....    -0.314587 (11 iterations)
The final length of the internal step   ....  0.300000000
Converting the step to Cartesian space:
 Initial RMS(Int)=    0.0774596669
Transforming coordinates:
 Iter   0:  RMS(Cart)=    0.0704778875 RMS(Int)=    0.0769105657
 Iter   5:  RMS(Cart)=    0.0000000355 RMS(Int)=    0.0000000414
done
Storing new coordinates                 .... done

                                .--------------------.
          ----------------------|Geometry convergence|-------------------------
          Item                value                   Tolerance       Converged
          ---------------------------------------------------------------------
          RMS gradient        0.0348580296            0.0001000000      NO
          MAX gradient        0.1289499382            0.0003000000      NO
          RMS step            0.0774596669            0.0020000000      NO
          MAX step            0.2930023934            0.0040000000      NO
          ........................................................
          Max(Bonds)      0.1551      Max(Angles)    2.87
          Max(Dihed)        0.47      Max(Improp)    0.00
          ---------------------------------------------------------------------

The optimization has not yet converged - more geometry cycles are needed


    ---------------------------------------------------------------------------
                         Redundant Internal Coordinates
                            (Angstroem and degrees)

        Definition                    Value    dE/dq     Step     New-Value
    ----------------------------------------------------------------------------
     1. B(O   1,C   0)                1.4158  0.010236 -0.0066    1.4092   
     2. B(H   2,C   0)                1.0928  0.005017 -0.0040    1.0888   
     3. B(H   3,C   0)                1.0928  0.004684 -0.0037    1.0891   
     4. B(H   4,C   0)                1.0926  0.007200 -0.0057    1.0869   
     5. B(H   5,O   1)                1.3469  0.128950 -0.1551    1.1919   
     6. A(O   1,C   0,H   3)          109.53 -0.010344    0.94    110.48   
     7. A(O   1,C   0,H   2)          109.53 -0.011350    1.03    110.56   
     8. A(O   1,C   0,H   4)          108.98  0.014271   -1.30    107.68   
     9. A(H   2,C   0,H   4)          109.35  0.001746   -0.21    109.14   
    10. A(H   3,C   0,H   4)          109.35  0.001202   -0.16    109.19   
    11. A(H   2,C   0,H   3)          110.08  0.004626   -0.32    109.76   
    12. A(C   0,O   1,H   5)          115.69  0.029966   -2.87    112.82   
    13. D(H   5,O   1,C   0,H   3)    -65.89  0.003634   -0.37    -66.27   
    14. D(H   5,O   1,C   0,H   4)    174.52 -0.000264    0.05    174.56   
    15. D(H   5,O   1,C   0,H   2)     54.92 -0.004223    0.47     55.40   
    ----------------------------------------------------------------------------

Geometry step timings:
Preparation and reading OPT file:      0.000 s (17.584 %)
Internal coordinates            :      0.000 s ( 3.552 %)
B/P matrices and projection     :      0.000 s (25.044 %)
Hessian update/contruction      :      0.000 s (13.144 %)
Making the step                 :      0.000 s (14.920 %)
Converting the step to Cartesian:      0.000 s ( 3.730 %)
Storing new data                :      0.000 s ( 3.375 %)
Checking convergence            :      0.000 s ( 0.000 %)
Final printing                  :      0.000 s (18.295 %)
Total time                      :      0.001 s

Time for energy+gradient        :     10.096 s
Time for complete geometry iter :     10.667 s

         *************************************************************
         *                GEOMETRY OPTIMIZATION CYCLE   2            *
         *************************************************************
---------------------------------
CARTESIAN COORDINATES (ANGSTROEM)
---------------------------------
  C      1.050139   -0.070768   -0.004734
  O      2.459277   -0.080792   -0.010142
  H      0.671076    0.734299   -0.632173
  H      0.673964    0.045764    1.010640
  H      0.711663   -1.023329   -0.404034
  H      2.930171    0.964676    0.315084

----------------------------
CARTESIAN COORDINATES (A.U.)
----------------------------
  NO LB      ZA    FRAG     MASS         X           Y           Z
   0 C     6.0000    0    12.011    1.984474   -0.133731   -0.008947
   1 O     8.0000    0    15.999    4.647360   -0.152675   -0.019165
   2 H     1.0000    0     1.008    1.268150    1.387625   -1.194634
   3 H     1.0000    0     1.008    1.273607    0.086481    1.909833
   4 H     1.0000    0     1.008    1.344849   -1.933812   -0.763514
   5 H     1.0000    0     1.008    5.537221    1.822973    0.595422

--------------------------------
INTERNAL COORDINATES (ANGSTROEM)
--------------------------------
 C      0   0   0     0.000000000000     0.00000000     0.00000000
 O      1   0   0     1.409184330072     0.00000000     0.00000000
 H      1   2   0     1.088806848803   110.55963366     0.00000000
 H      1   2   3     1.089069475519   110.47121692   238.31622662
 H      1   2   3     1.086913011813   107.68329838   119.15284729
 H      2   1   3     1.191854248595   112.81728837    55.40752251

---------------------------
INTERNAL COORDINATES (A.U.)
---------------------------
 C      0   0   0     0.000000000000     0.00000000     0.00000000
 O      1   0   0     2.662972456048     0.00000000     0.00000000
 H      1   2   0     2.057546756975   110.55963366     0.00000000
 H      1   2   3     2.058043049544   110.47121692   238.31622662
 H      1   2   3     2.053967923722   107.68329838   119.15284729
 H      2   1   3     2.252278121395   112.81728837    55.40752251



           ************************************************************
           *        Program running with 6 parallel MPI-processes     *
           *              working on a common directory               *
           ************************************************************
------------------------------------------------------------------------------
                   ___                                                        
                  /   \      - P O W E R E D   B Y -                         
                 /     \                                                     
                 |  |  |   _    _      __       _____    __    __             
                 |  |  |  | |  | |    /  \     |  _  \  |  |  /  |          
                  \  \/   | |  | |   /    \    | | | |  |  | /  /          
                 / \  \   | |__| |  /  /\  \   | |_| |  |  |/  /          
                |  |  |   |  __  | /  /__\  \  |    /   |      \           
                |  |  |   | |  | | |   __   |  |    \   |  |\   \          
                \     /   | |  | | |  |  |  |  | |\  \  |  | \   \       
                 \___/    |_|  |_| |__|  |__|  |_| \__\ |__|  \__/        
                                                                              
                      - O R C A' S   B I G   F R I E N D -                    
                                      &                                       
                       - I N T E G R A L  F E E D E R -                       
                                                                              
 v1 FN, 2020, v2 2021, v3 2022-2024                                           
------------------------------------------------------------------------------


----------------------
SHARK INTEGRAL PACKAGE
----------------------

Number of atoms                             ...      6
Number of basis functions                   ...    128
Number of shells                            ...     56
Maximum angular momentum                    ...      3
Integral batch strategy                     ... SHARK/LIBINT Hybrid
RI-J (if used) integral strategy            ... SPLIT-RIJ (Revised 2003 algorithm where possible)
Printlevel                                  ...      1
Contraction scheme used                     ... PARTIAL GENERAL contraction
Prescreening option                         ... SCHWARTZ
   Thresh                                   ... 2.500e-11
   Tcut                                     ... 2.500e-12
   Tpresel                                  ... 2.500e-12 
Coulomb Range Separation                    ... NOT USED
Exchange Range Separation                   ... NOT USED
Multipole approximations                    ... NOT USED
Finite Nucleus Model                        ... NOT USED
CABS basis                                  ... NOT available
Auxiliary Coulomb fitting basis             ... AVAILABLE
   # of basis functions in Aux-J            ...    142
   # of shells in Aux-J                     ...     50
   Maximum angular momentum in Aux-J        ...      4
Auxiliary J/K fitting basis                 ... NOT available
Auxiliary Correlation fitting basis         ... NOT available
Auxiliary 'external' fitting basis          ... NOT available

Checking pre-screening integrals            ... done (  0.0 sec) Dimension = 56
Save PGC pre-screening integrals            ... done (  0.0 sec) Dimension = 56
Calculate PGC overlap integrals             ... done (  0.0 sec) Dimension = 44
Calculating pre-screening integrals (ORCA)  ... done (  0.1 sec) Dimension = 44
Check shell pair data                       ... done (  0.0 sec)
Shell pair information
Shell pair cut-off parameter TPreSel        ...   2.5e-12
Total number of shell pairs                 ...      1596
Shell pairs after pre-screening             ...      1555
Total number of primitive shell pairs       ...      2364
Primitive shell pairs kept                  ...      2158
          la=0 lb=0:    487 shell pairs
          la=1 lb=0:    448 shell pairs
          la=1 lb=1:    105 shell pairs
          la=2 lb=0:    256 shell pairs
          la=2 lb=1:    112 shell pairs
          la=2 lb=2:     36 shell pairs
          la=3 lb=0:     64 shell pairs
          la=3 lb=1:     28 shell pairs
          la=3 lb=2:     16 shell pairs
          la=3 lb=3:      3 shell pairs

Calculating one electron integrals          ... done (  0.0 sec)
Calculating RI/J V-Matrix + Cholesky decomp.... done (  0.0 sec)
Calculating Nuclear repulsion               ... done (  0.0 sec) ENN=     39.483021928764 Eh

Diagonalization of the overlap matrix:
Smallest eigenvalue                        ... 1.838e-03
Time for diagonalization                   ...    0.002 sec
Threshold for overlap eigenvalues          ... 1.000e-07
Number of eigenvalues below threshold      ... 0
Time for construction of square roots      ...    0.001 sec
Total time needed                          ...    0.003 sec

-------------------
DFT GRID GENERATION
-------------------

General Integration Accuracy     IntAcc      ... 4.388
Radial Grid Type                 RadialGrid  ... OptM3 with GC (2021)
Angular Grid (max. ang.)         AngularGrid ... 4 (Lebedev-302)
Angular grid pruning method      GridPruning ... 4 (adaptive)
Weight generation scheme         WeightScheme... mBecke (2022)
Basis function cutoff            BFCut       ... 1.0000e-11
Integration weight cutoff        WCut        ... 1.0000e-14
Partially contracted basis set               ... off
Rotationally invariant grid construction     ... off
Angular grids for H and He will be reduced by one unit

Total number of grid points                  ...    25326
Total number of batches                      ...      398
Average number of points per batch           ...       63
Average number of grid points per atom       ...     4221

---------------------
SHARK GRID GENERATION
---------------------

General Integration Accuracy     IntAcc      ... 4.388
Radial Grid Type                 RadialGrid  ... OptM3 with GC (2021)
Angular Grid (max. ang.)         AngularGrid ... 4 (Lebedev-302)
Angular grid pruning method      GridPruning ... 4 (adaptive)
Weight generation scheme         WeightScheme... mBecke (2022)
Basis function cutoff            BFCut       ... 1.0000e-11
Integration weight cutoff        WCut        ... 1.0000e-14
Partially contracted basis set               ... off
Rotationally invariant grid construction     ... off
Angular grids for H and He will be reduced by one unit
Steep s-basis detected: some atoms will have their radial
                        grid points doubled.

Total number of grid points                  ...    37728
Total number of batches                      ...      592
Average number of points per batch           ...       63
Average number of grid points per atom       ...     6288

--------------------
COSX GRID GENERATION
--------------------

GRIDX 1
-------
General Integration Accuracy     IntAcc      ... 3.816
Radial Grid Type                 RadialGrid  ... OptM3 with GC (2021)
Angular Grid (max. ang.)         AngularGrid ... 1 (Lebedev-50)
Angular grid pruning method      GridPruning ... 4 (adaptive)
Weight generation scheme         WeightScheme... mBecke (2022)
Basis function cutoff            BFCut       ... 1.0000e-11
Integration weight cutoff        WCut        ... 1.0000e-14
Partially contracted basis set               ... on
Rotationally invariant grid construction     ... off
Angular grids for H and He will be reduced by one unit

Total number of grid points                  ...     3286
Total number of batches                      ...       28
Average number of points per batch           ...      117
Average number of grid points per atom       ...      548
UseSFitting                                  ... on

GRIDX 2
-------
General Integration Accuracy     IntAcc      ... 4.020
Radial Grid Type                 RadialGrid  ... OptM3 with GC (2021)
Angular Grid (max. ang.)         AngularGrid ... 2 (Lebedev-110)
Angular grid pruning method      GridPruning ... 4 (adaptive)
Weight generation scheme         WeightScheme... mBecke (2022)
Basis function cutoff            BFCut       ... 1.0000e-11
Integration weight cutoff        WCut        ... 1.0000e-14
Partially contracted basis set               ... on
Rotationally invariant grid construction     ... off
Angular grids for H and He will be reduced by one unit

Total number of grid points                  ...     6912
Total number of batches                      ...       58
Average number of points per batch           ...      119
Average number of grid points per atom       ...     1152
UseSFitting                                  ... on

GRIDX 3
-------
General Integration Accuracy     IntAcc      ... 4.338
Radial Grid Type                 RadialGrid  ... OptM3 with GC (2021)
Angular Grid (max. ang.)         AngularGrid ... 3 (Lebedev-194)
Angular grid pruning method      GridPruning ... 4 (adaptive)
Weight generation scheme         WeightScheme... mBecke (2022)
Basis function cutoff            BFCut       ... 1.0000e-11
Integration weight cutoff        WCut        ... 1.0000e-14
Partially contracted basis set               ... on
Rotationally invariant grid construction     ... off
Angular grids for H and He will be reduced by one unit

Total number of grid points                  ...    15258
Total number of batches                      ...      121
Average number of points per batch           ...      126
Average number of grid points per atom       ...     2543
UseSFitting                                  ... on
Initializing property integral containers    ... done (  0.0 sec)

SHARK setup successfully completed in   0.9 seconds

Maximum memory used throughout the entire STARTUP-calculation: 19.4 MB


           ************************************************************
           *        Program running with 6 parallel MPI-processes     *
           *              working on a common directory               *
           ************************************************************
Occupation numbers will be reassigned to an Aufbau configuration
             **** ENERGY FILE WAS UPDATED (CH3OH_OPT.en.tmp) ****
Finished Guess after   0.1 sec
Maximum memory used throughout the entire GUESS-calculation: 8.8 MB


           ************************************************************
           *        Program running with 6 parallel MPI-processes     *
           *              working on a common directory               *
           ************************************************************
----------------------------------------D-I-I-S--------------------------------------------
Iteration    Energy (Eh)           Delta-E    RMSDP     MaxDP     DIISErr   Damp  Time(sec)
-------------------------------------------------------------------------------------------
               ***  Starting incremental Fock matrix formation  ***
    1    -115.6605592529640631     0.00e+00  1.90e-04  4.26e-03  4.59e-02  0.700   0.3
    2    -115.6614835423624896    -9.24e-04  1.63e-04  3.55e-03  3.54e-02  0.700   0.2
                               ***Turning on AO-DIIS***
    3    -115.6621542739142257    -6.71e-04  1.32e-04  2.86e-03  2.64e-02  0.700   0.2
    4    -115.6626410295235843    -4.87e-04  3.62e-04  7.87e-03  1.91e-02  0.000   0.2
                              *** Initializing SOSCF ***
---------------------------------------S-O-S-C-F--------------------------------------
Iteration    Energy (Eh)           Delta-E    RMSDP     MaxDP     MaxGrad    Time(sec)
--------------------------------------------------------------------------------------
    5    -115.6639476942953735    -1.31e-03  5.57e-05  1.29e-03  2.92e-03     0.2
               *** Restarting incremental Fock matrix formation ***
    6    -115.6639674505943702    -1.98e-05  4.45e-05  9.72e-04  5.98e-04     0.3
    7    -115.6639710167048491    -3.57e-06  3.20e-05  7.74e-04  2.97e-04     0.3
    8    -115.6639715317415238    -5.15e-07  1.24e-05  3.07e-04  1.92e-04     0.3
    9    -115.6639718620468642    -3.30e-07  5.53e-07  9.99e-06  8.39e-06     0.3
   10    -115.6639718633029048    -1.26e-09  2.13e-07  3.34e-06  2.56e-06     0.3
                 **** Energy Check signals convergence ****

               *****************************************************
               *                     SUCCESS                       *
               *           SCF CONVERGED AFTER  10 CYCLES          *
               *****************************************************

Recomputing exchange energy using gridx3       ... done (    0.387 sec)
Old exchange energy                            :     -7.377051080 Eh
New exchange energy                            :     -7.377037246 Eh
Exchange energy change after final integration :      0.000013834 Eh
Total energy after final integration           :   -115.663958029 Eh
             **** ENERGY FILE WAS UPDATED (CH3OH_OPT.en.tmp) ****

----------------
TOTAL SCF ENERGY
----------------

Total Energy       :       -115.66395802921087 Eh           -3147.37631 eV

Components:
Nuclear Repulsion  :         39.48302192876419 Eh            1074.38765 eV
Electronic Energy  :       -155.14699379206709 Eh           -4221.76433 eV
One Electron Energy:       -235.57853798471368 Eh           -6410.41792 eV
Two Electron Energy:         80.43154419264658 Eh            2188.65359 eV

Virial components:
Potential Energy   :       -230.49114999089605 Eh           -6271.98305 eV
Kinetic Energy     :        114.82719196168517 Eh            3124.60675 eV
Virial Ratio       :          2.00728717695896

DFT components:
N(Alpha)           :        9.000002135493 electrons
N(Beta)            :        9.000002135493 electrons
N(Total)           :       18.000004270986 electrons
E(X)               :       -7.406798005722 Eh       
E(C)               :       -0.593663639629 Eh       
E(XC)              :       -8.000461645352 Eh       

---------------
SCF CONVERGENCE
---------------

  Last Energy change         ...    1.2560e-09  Tolerance :   1.0000e-08
  Last MAX-Density change    ...    3.3405e-06  Tolerance :   1.0000e-07
  Last RMS-Density change    ...    2.1335e-07  Tolerance :   5.0000e-09
  Last DIIS Error            ...    2.9243e-03  Tolerance :   5.0000e-07
  Last Orbital Gradient      ...    2.5566e-06  Tolerance :   1.0000e-05
  Last Orbital Rotation      ...    7.5667e-06  Tolerance :   1.0000e-05


Total SCF time: 0 days 0 hours 0 min 3 sec 
Finished LeanSCF after   3.2 sec

Maximum memory used throughout the entire LEANSCF-calculation: 10.2 MB


           ************************************************************
           *        Program running with 6 parallel MPI-processes     *
           *              working on a common directory               *
           ************************************************************

------------------------------------------------------------------------------
                         ORCA PROPERTY INTEGRAL CALCULATIONS
------------------------------------------------------------------------------

GBWName                                   ... CH3OH_OPT.gbw
Number of atoms                           ...      6
Number of basis functions                 ...    128
Max core memory                           ...   1024 MB

Dipole integrals                          ... YES
Quadrupole integrals                      ...  NO
Linear momentum integrals                 ...  NO
Angular momentum integrals                ...  NO
Higher moments length integrals           ...  NO
Higher moments velocity integrals         ...  NO
Kinetic energy integrals                  ...  NO
GIAO right hand sides                     ...  NO
GIAO dipole derivative integrals          ...  NO
SOC integrals                             ...  NO
EPR diamagnetic integrals (GIAO)          ...  NO
EPR gauge integrals                       ...  NO
Field gradient integrals                  ...  NO (   0 nuclei)
Spin-dipole/Fermi contact integrals       ...  NO (   0 nuclei)
Contact density integrals                 ...  NO (   0 nuclei)
Nucleus-orbit integrals                   ...  NO (   0 nuclei)
Geometric perturbations                   ...  NO (   6 nuclei)

Choice of electric origin   ... Center of mass
Position of electric origin ... (  3.3608, -0.0835,  0.0043) 
Choice of magnetic origin   ... GIAO
Position of magnetic origin ... (  0.0000,  0.0000,  0.0000) 

Calculating integrals                     ... Electric Dipole (Length)     done (  0.0 sec)

Property integrals calculated in   0.0 sec

Maximum memory used throughout the entire PROPINT-calculation: 8.9 MB

-------------------------   --------------------
FINAL SINGLE POINT ENERGY      -115.663958029211
[...]
Nuclear contribution   :     -2.152491600       0.597620802       0.291436668
                        -----------------------------------------
Total Dipole Moment    :     -0.361179055       0.499507742       0.212013722
                        -----------------------------------------
Magnitude (a.u.)       :      0.651849762
Magnitude (Debye)      :      1.656870421



--------------------
Rotational spectrum 
--------------------
 
Rotational constants in cm-1:             4.374812             0.843115             0.814216 
Rotational constants in MHz :        131153.569998         25275.944454         24409.568979 

Dipole components along the rotational axes: 
x,y,z [a.u.] :    -0.327272     0.563739     0.000156 
x,y,z [Debye]:    -0.831859     1.432910     0.000396 

 

Dipole moment calculation done in   0.0 sec 

-----------
SCF HESSIAN
-----------

Occupied/Occupied contributions to the Hessian:
   => Occupied/Occupied contributions              ... done (  0.0 sec)
Perturbed density contributions to the Hessian:
   => Perturbed density contributions              ... done (  0.0 sec)
Explicit contributions to the Hessian:
   => Nuclear repulsion Hessian                    ... done (  0.0 sec)
   => HCore and overlap Hessian                    ... done (  0.2 sec)
   => RI-J Hessian                                 ... done (  0.4 sec)
   => COSX Hessian                                 ... done ( 22.8 sec)
   => XC-Hessian                                   ... done (  2.4 sec)
   => Explicit contributions done
Dipole derivatives                                 ... done (  0.0 sec)
Mass weighting the Hessian           ... done
Calculating normal modes             ... done
Scaling frequencies                  ... done

-----------------------
VIBRATIONAL FREQUENCIES
-----------------------

Scaling factor for frequencies =  1.000000000  (already applied!)

     0:       0.00 cm**-1
     1:       0.00 cm**-1
     2:       0.00 cm**-1
     3:       0.00 cm**-1
     4:       0.00 cm**-1
     5:       0.00 cm**-1
     6:     296.67 cm**-1
     7:    1105.17 cm**-1
     8:    1132.14 cm**-1
     9:    1221.00 cm**-1
    10:    1421.74 cm**-1
    11:    1539.45 cm**-1
    12:    1552.44 cm**-1
    13:    1566.29 cm**-1
    14:    3079.50 cm**-1
    15:    3125.04 cm**-1
    16:    3192.19 cm**-1
    17:    4004.28 cm**-1


------------
NORMAL MODES
------------

These modes are the Cartesian displacements weighted by the diagonal matrix
M(i,i)=1/sqrt(m[i]) where m[i] is the mass of the displaced atom
Thus, these vectors are normalized but *not* orthogonal

                  0          1          2          3          4          5    
      0       0.000000   0.000000   0.000000   0.000000   0.000000   0.000000
      1       0.000000   0.000000   0.000000   0.000000   0.000000   0.000000
      2       0.000000   0.000000   0.000000   0.000000   0.000000   0.000000
      3       0.000000   0.000000   0.000000   0.000000   0.000000   0.000000
      4       0.000000   0.000000   0.000000   0.000000   0.000000   0.000000
      5       0.000000   0.000000   0.000000   0.000000   0.000000   0.000000
      6       0.000000   0.000000   0.000000   0.000000   0.000000   0.000000
      7       0.000000   0.000000   0.000000   0.000000   0.000000   0.000000
      8       0.000000   0.000000   0.000000   0.000000   0.000000   0.000000
      9       0.000000   0.000000   0.000000   0.000000   0.000000   0.000000
     10       0.000000   0.000000   0.000000   0.000000   0.000000   0.000000
     11       0.000000   0.000000   0.000000   0.000000   0.000000   0.000000
     12       0.000000   0.000000   0.000000   0.000000   0.000000   0.000000
     13       0.000000   0.000000   0.000000   0.000000   0.000000   0.000000
     14       0.000000   0.000000   0.000000   0.000000   0.000000   0.000000
     15       0.000000   0.000000   0.000000   0.000000   0.000000   0.000000
     16       0.000000   0.000000   0.000000   0.000000   0.000000   0.000000
     17       0.000000   0.000000   0.000000   0.000000   0.000000   0.000000
                  6          7          8          9         10         11    
      0       0.000067   0.098658   0.299697   0.002790   0.013902  -0.107154
      1      -0.001738   0.067724  -0.049150  -0.051756   0.115795  -0.022312
      2       0.004146   0.025385  -0.026609   0.126961   0.046948  -0.006890
      3      -0.001331  -0.126011  -0.229769  -0.001293   0.027881  -0.014361
      4       0.024581  -0.004751   0.003279   0.023176  -0.074988  -0.002033
      5      -0.060126   0.000894   0.006357  -0.056809  -0.031257  -0.000520
      6      -0.037771  -0.188026   0.440221   0.638662  -0.142509   0.446354
      7      -0.168360  -0.196341   0.155586   0.028101  -0.149169   0.285464
      8      -0.177228  -0.112015   0.097677  -0.206224  -0.173642   0.018249
      9       0.033530  -0.187914   0.440036  -0.644823  -0.139601   0.448566
     10       0.244695  -0.221426   0.186266   0.114666  -0.229279   0.222348
     11      -0.011399  -0.049619   0.022043  -0.143041   0.025878   0.168365
     12       0.005936   0.620067  -0.242235  -0.006814   0.443228   0.614646
     13      -0.110489  -0.081088   0.093344   0.104139   0.003593  -0.202708
     14       0.272441  -0.047092   0.043626  -0.256697  -0.008697  -0.093550
     15       0.018625   0.580344  -0.562220   0.000253  -0.769306  -0.004811
     16      -0.335289  -0.232713   0.098402   0.001946   0.185288  -0.006967
     17       0.821106  -0.107934   0.052820  -0.005193   0.093143  -0.002706
                 12         13         14         15         16         17    
      0       0.001136   0.034648   0.043329   0.001771  -0.011271   0.000785
      1      -0.022463  -0.039018  -0.024686  -0.035313  -0.083130  -0.002018
      2       0.054456  -0.016936  -0.010663   0.087150  -0.033527  -0.000840
      3       0.000198   0.007458   0.002373  -0.000014  -0.000138  -0.022238
      4      -0.003277  -0.016184   0.000250   0.000142   0.001544  -0.054380
      5       0.007848  -0.006812   0.000045  -0.000360   0.000633  -0.021705
      6      -0.277133  -0.330310  -0.253452  -0.266079  -0.069074   0.002900
      7      -0.343722   0.242101   0.482458   0.512275   0.121645   0.000869
      8      -0.198049   0.539363  -0.404954  -0.398944  -0.121383  -0.000403
      9       0.272703  -0.350298  -0.229101   0.244252  -0.062923   0.002922
     10       0.396718   0.539472   0.059981  -0.086284   0.001937   0.000409
     11       0.085157  -0.206730   0.631817  -0.656479   0.175310   0.000835
     12      -0.011967   0.251258  -0.076211   0.001003   0.265313   0.003308
     13       0.270683  -0.079935  -0.254910  -0.008448   0.857539   0.012837
     14      -0.670635  -0.033192  -0.101520   0.025037   0.341755   0.005116
     15      -0.000283  -0.101889   0.004815  -0.000055   0.003178   0.334469
     16      -0.004006   0.020170   0.002657   0.000978  -0.015082   0.873049
     17       0.010085   0.010485   0.000992  -0.002358  -0.006230   0.348953


-----------
IR SPECTRUM
-----------

 Mode   freq       eps      Int      T**2         TX        TY        TZ
       cm**-1   L/(mol*cm) km/mol    a.u.
----------------------------------------------------------------------------
  6:    296.67   0.023364  118.07  0.024577  ( 0.003277 -0.059118  0.145159)
  7:   1105.17   0.020790  105.06  0.005870  ( 0.076448 -0.003911 -0.003288)
  8:   1132.14   0.004996   25.25  0.001377  ( 0.037016  0.002629  0.000298)
  9:   1221.00   0.000229    1.16  0.000059  ( 0.000150 -0.002885  0.007091)
 10:   1421.74   0.006250   31.59  0.001372  (-0.036118  0.007277  0.003805)
 11:   1539.45   0.000831    4.20  0.000169  (-0.012942  0.000795  0.000602)
 12:   1552.44   0.000474    2.40  0.000095  (-0.000197  0.003707 -0.009033)
 13:   1566.29   0.000850    4.30  0.000169  ( 0.004042  0.011462  0.004657)
 14:   3079.50   0.011978   60.53  0.001214  ( 0.032872 -0.010479 -0.004840)
 15:   3125.04   0.013224   66.83  0.001321  ( 0.000629 -0.013655  0.033671)
 16:   3192.19   0.006290   31.78  0.000615  (-0.004328 -0.022648 -0.009122)
 17:   4004.28   0.007776   39.30  0.000606  ( 0.014784  0.018332  0.007169)

* The epsilon (eps) is given for a Dirac delta lineshape.
** The dipole moment derivative (T) already includes vibrational overlap.

The first frequency considered to be a vibration is 6
The total number of vibrations considered is 12


--------------------------
THERMOCHEMISTRY AT 298.15K
--------------------------

Temperature         ...   298.15 K
Pressure            ...     1.00 atm
Total Mass          ...    32.04 AMU
Quasi RRHO          ...     True
Cut-Off Frequency   ...     1.00 cm^-1

Throughout the following assumptions are being made:
  (1) The electronic state is orbitally nondegenerate
  (2) There are no thermally accessible electronically excited states
  (3) Hindered rotations indicated by low frequency modes are not
      treated as such but are treated as vibrations and this may
      cause some error
  (4) All equations used are the standard statistical mechanics
      equations for an ideal gas
  (5) All vibrations are strictly harmonic

freq.     296.67  E(vib)   ...       0.27 
freq.    1105.17  E(vib)   ...       0.02 
freq.    1132.14  E(vib)   ...       0.01 
freq.    1221.00  E(vib)   ...       0.01 
freq.    1421.74  E(vib)   ...       0.00 
freq.    1539.45  E(vib)   ...       0.00 
freq.    1552.44  E(vib)   ...       0.00 
freq.    1566.29  E(vib)   ...       0.00 
freq.    3079.50  E(vib)   ...       0.00 
freq.    3125.04  E(vib)   ...       0.00 
freq.    3192.19  E(vib)   ...       0.00 
freq.    4004.28  E(vib)   ...       0.00 

------------
INNER ENERGY
------------

The inner energy is: U= E(el) + E(ZPE) + E(vib) + E(rot) + E(trans)
    E(el)   - is the total energy from the electronic structure calculation
              = E(kin-el) + E(nuc-el) + E(el-el) + E(nuc-nuc)
    E(ZPE)  - the the zero temperature vibrational energy from the frequency calculation
    E(vib)  - the the finite temperature correction to E(ZPE) due to population
              of excited vibrational states
    E(rot)  - is the rotational thermal energy
    E(trans)- is the translational thermal energy

Summary of contributions to the inner energy U:
Electronic energy                ...   -115.70162745 Eh
Zero point energy                ...      0.05293528 Eh      33.22 kcal/mol
Thermal vibrational correction   ...      0.00050481 Eh       0.32 kcal/mol
Thermal rotational correction    ...      0.00141627 Eh       0.89 kcal/mol
Thermal translational correction ...      0.00141627 Eh       0.89 kcal/mol
-----------------------------------------------------------------------
Total thermal energy                   -115.64535481 Eh


Summary of corrections to the electronic energy:
(perhaps to be used in another calculation)
Total thermal correction                  0.00333736 Eh       2.09 kcal/mol
Non-thermal (ZPE) correction              0.05293528 Eh      33.22 kcal/mol
-----------------------------------------------------------------------
Total correction                          0.05627264 Eh      35.31 kcal/mol


--------
ENTHALPY
--------

The enthalpy is H = U + kB*T
                kB is Boltzmann's constant
Total thermal energy              ...   -115.64535481 Eh 
Thermal Enthalpy correction       ...      0.00094421 Eh       0.59 kcal/mol
-----------------------------------------------------------------------
Total Enthalpy                    ...   -115.64441060 Eh


Note: Only C1 symmetry has been detected, increase convergence thresholds 
      if your molecule has a higher symmetry. Symmetry factor of 1.0 is   
      used for the rotational entropy correction. 
 

Note: Rotational entropy computed according to Herzberg 
Infrared and Raman Spectra, Chapter V,1, Van Nostrand Reinhold, 1945 
Point Group:  C1, Symmetry Number:   1  
Rotational constants in cm-1:     4.374812     0.843115     0.814216 

Vibrational entropy computed according to the QRRHO of S. Grimme
Chem.Eur.J. 2012 18 9955 using a reference frequency of 100.0 cm-1


-------
ENTROPY
-------

The entropy contributions are T*S = T*(S(el)+S(vib)+S(rot)+S(trans))
     S(el)   - electronic entropy
     S(vib)  - vibrational entropy
     S(rot)  - rotational entropy
     S(trans)- translational entropy
The entropies will be listed as multiplied by the temperature to get
units of energy

Electronic entropy                ...      0.00000000 Eh      0.00 kcal/mol
Vibrational entropy               ...      0.00077842 Eh      0.49 kcal/mol
Rotational entropy                ...      0.00899166 Eh      5.64 kcal/mol
Translational entropy             ...      0.01725935 Eh     10.83 kcal/mol
-----------------------------------------------------------------------
Final entropy term                ...      0.02702943 Eh     16.96 kcal/mol

In case the symmetry of your molecule has not been determined correctly
or in case you have a reason to use a different symmetry number we print 
out the resulting rotational entropy values for sn=1,12:

 non-linear molecules -----------------------------------
|  sn= 1 | S(rot)=       0.00899166 Eh      5.64 kcal/mol|
|  sn= 2 | S(rot)=       0.00833720 Eh      5.23 kcal/mol|
|  sn= 3 | S(rot)=       0.00795437 Eh      4.99 kcal/mol|
|  sn= 4 | S(rot)=       0.00768275 Eh      4.82 kcal/mol|
|  sn= 5 | S(rot)=       0.00747206 Eh      4.69 kcal/mol|
|  sn= 6 | S(rot)=       0.00729992 Eh      4.58 kcal/mol|
|  sn= 7 | S(rot)=       0.00715437 Eh      4.49 kcal/mol|
|  sn= 8 | S(rot)=       0.00702829 Eh      4.41 kcal/mol|
|  sn= 9 | S(rot)=       0.00691708 Eh      4.34 kcal/mol|
|  sn=10 | S(rot)=       0.00681760 Eh      4.28 kcal/mol|
|  sn=11 | S(rot)=       0.00672761 Eh      4.22 kcal/mol|
|  sn=12 | S(rot)=       0.00664546 Eh      4.17 kcal/mol|
 linear molecules ---------------------------------------
|  Dinfh | S(rot)=       0.00551986 Eh      3.46 kcal/mol|
|  Cinfv | S(rot)=       0.00617432 Eh      3.87 kcal/mol|
 --------------------------------------------------------


-------------------
GIBBS FREE ENERGY
-------------------

The Gibbs free energy is G = H - T*S

Total enthalpy                    ...   -115.64441060 Eh 
Total entropy correction          ...     -0.02702943 Eh    -16.96 kcal/mol
-----------------------------------------------------------------------
Final Gibbs free energy         ...   -115.67144003 Eh

For completeness - the Gibbs free energy minus the electronic energy
G-E(el)                           ...      0.03018742 Eh     18.94 kcal/mol


Maximum memory used throughout the entire PROP-calculation: 21.6 MB

--------------------------------
SUGGESTED CITATIONS FOR THIS RUN
--------------------------------

Below you find a list of papers that are relevant to this ORCA run
We neither can nor want to force you to cite these papers, but we appreciate if you do
You receive ORCA, which is the product of decades of hard work by many enthusiastic individuals, for free
The only thing we kindly ask in return is that you cite our papers,
We deeply appreciate it, if you show your appreciation for ORCA by not just citing the generic ORCA reference.

Please note that relegating all ORCA citations to the supporting information does *not* help us.
SI sections are not indexed - citations you put there will not count into any citation statistics
But we need these citations in order to attract the funding resources that allow us to do what we are doing

Therefore, if you are a happy ORCA user, please consider citing a few of the papers listed below in the main body of your paper

In addition to the list printed below, the program has created the file CH3OH_OPT.bibtex that contains the list in bibtex format
You can import this file easily into all common literature databanks and citation aid programs


List of essential papers. We consider these as the minimum necessary citations

  1. Neese,F.
     Software update: the ORCA program system, version 5.0
     WIRES Comput. Molec. Sci., 2022 12(1)e1606
     doi.org/10.1002/wcms.1606

List of papers to cite with high priority. The work reported in these papers was absolutely
necessary for this run to complete.
Our perspective: the developers of density functionals and basis sets usually get cited in chemistry papers
Good! But without the algorithms to do something with them, the functionals or basis sets would not do anything.
Hence, in our opinion, the algorithm design and method developments papers are equally worthy of getting cited

  1. Neese,F.
     An improvement of the resolution of the identity approximation for the formation of the Coulomb matrix
     J. Comp. Chem., 2003 24(14)1740-1747
     doi.org/10.1002/jcc.10318
  2. Neese,F.; Wennmohs,F.; Hansen,A.; Becker,U.
     Efficient, approximate and parallel Hartree-Fock and hybrid DFT calculations. A 'chain-of-spheres' algorithm for the Hartree-Fock exchange
     Chem. Phys., 2009 356(1-3)98-109
     doi.org/10.1016/j.chemphys.2008.10.036
  3. Bykov,D.; Petrenko,T.; Izsak,R.; Kossmann,S.; Becker,U.; Valeev,E.; Neese,F.
     Efficient implementation of the analytic second derivatives of Hartree-Fock and hybrid DFT energies: a detailed analysis of different approximations
     Molec. Phys., 2015 113 1961-1977
     doi.org/10.1080/00268976.2015.1025114
  4. Helmich-Paris,B.; de Souza,B.; Neese,F.; Izsák,R.
     An improved chain of spheres for exchange algorithm
     J. Chem. Phys., 2021 155 104109
     doi.org/doi: 10.1063/5.0058766.
  5. Neese,F.
     The SHARK Integral Generation and Digestion System
     J. Comp. Chem., 2022  1-16
     doi.org/10.1002/jcc.26942

List of suggested additional citations. These are papers that are important in the 'surrounding' of 
of this run, or papers that preceded the highly important papers. If you like your results we are grateful for a citation.

  1. Izsak,R.; Neese,F.
     An overlap fitted chain of spheres exchange method
     J. Chem. Phys., 2011 135 144105
     doi.org/10.1063/1.3646921
  2. Izsak,R.; Hansen,A.; Neese,F.
     The resolution of identity and chain of spheres approximations for the LPNO-CCSD singles Fock term
     Molec. Phys., 2012 110 2413-2417
     doi.org/10.1080/00268976.2012.687466
  3. Neese,F.
     The ORCA program system
     WIRES Comput. Molec. Sci., 2012 2(1)73-78
     doi.org/10.1002/wcms.81
  4. Izsak,R.; Neese,F.; Klopper,W.
     Robust fitting techniques in the chain of spheres approximation to the Fock exchange: The role of the complementary space
     J. Chem. Phys., 2013 139 
     doi.org/10.1063/1.4819264
  5. Neese,F.
     Software update: the ORCA program system, version 4.0
     WIRES Comput. Molec. Sci., 2018 8(1)1-6
     doi.org/10.1002/wcms.1327
  6. Neese,F.; Wennmohs,F.; Becker,U.; Riplinger,C.
     The ORCA quantum chemistry program package
     J. Chem. Phys., 2020 152 Art. No. L224108
     doi.org/10.1063/5.0004608

List of optional additional citations

  1. Neese,F.
     Approximate second-order SCF convergence for spin unrestricted wavefunctions
     Chem. Phys. Lett., 2000 325(1-3)93-98
     doi.org/10.1016/s0009-2614(00)00662-x

Timings for individual modules:

Sum of individual times          ...      148.835 sec (=   2.481 min)
Startup calculation              ...       19.624 sec (=   0.327 min)  13.2 %
SCF iterations                   ...       48.859 sec (=   0.814 min)  32.8 %
Property integrals               ...       13.973 sec (=   0.233 min)   9.4 %
SCF Response                     ...        4.232 sec (=   0.071 min)   2.8 %
Property calculations            ...       26.540 sec (=   0.442 min)  17.8 %
SCF Gradient evaluation          ...       35.594 sec (=   0.593 min)  23.9 %
Geometry relaxation              ...        0.012 sec (=   0.000 min)   0.0 %
                             ****ORCA TERMINATED NORMALLY****
TOTAL RUN TIME: 0 days 0 hours 2 minutes 35 seconds 827 msec
